 Entering Gaussian System, Link 0=g16
 Initial command:
 /sw/cluster/pub/apps//g16/l1.exe "/data/natrosa/28086/Gau-2568329.inp" -scrdir="/data/natrosa/28086/"
 Entering Link 1 = /sw/cluster/pub/apps//g16/l1.exe PID=   2568330.
  
 Copyright (c) 1988,1990,1992,1993,1995,1998,2003,2009,2016,
            Gaussian, Inc.  All Rights Reserved.
  
 This is part of the Gaussian(R) 16 program.  It is based on
 the Gaussian(R) 09 system (copyright 2009, Gaussian, Inc.),
 the Gaussian(R) 03 system (copyright 2003, Gaussian, Inc.),
 the Gaussian(R) 98 system (copyright 1998, Gaussian, Inc.),
 the Gaussian(R) 94 system (copyright 1995, Gaussian, Inc.),
 the Gaussian 92(TM) system (copyright 1992, Gaussian, Inc.),
 the Gaussian 90(TM) system (copyright 1990, Gaussian, Inc.),
 the Gaussian 88(TM) system (copyright 1988, Gaussian, Inc.),
 the Gaussian 86(TM) system (copyright 1986, Carnegie Mellon
 University), and the Gaussian 82(TM) system (copyright 1983,
 Carnegie Mellon University). Gaussian is a federally registered
 trademark of Gaussian, Inc.
  
 This software contains proprietary and confidential information,
 including trade secrets, belonging to Gaussian, Inc.
  
 This software is provided under written license and may be
 used, copied, transmitted, or stored only in accord with that
 written license.
  
 The following legend is applicable only to US Government
 contracts under FAR:
  
                    RESTRICTED RIGHTS LEGEND
  
 Use, reproduction and disclosure by the US Government is
 subject to restrictions as set forth in subparagraphs (a)
 and (c) of the Commercial Computer Software - Restricted
 Rights clause in FAR 52.227-19.
  
 Gaussian, Inc.
 340 Quinnipiac St., Bldg. 40, Wallingford CT 06492
  
  
 ---------------------------------------------------------------
 Warning -- This program may not be used in any manner that
 competes with the business of Gaussian, Inc. or will provide
 assistance to any competitor of Gaussian, Inc.  The licensee
 of this program is prohibited from giving any competitor of
 Gaussian, Inc. access to this program.  By using this program,
 the user acknowledges that Gaussian, Inc. is engaged in the
 business of creating and licensing software in the field of
 computational chemistry and represents and warrants to the
 licensee that it is not a competitor of Gaussian, Inc. and that
 it will not use this program in any manner prohibited above.
 ---------------------------------------------------------------
  

 Cite this work as:
 Gaussian 16, Revision A.03,
 M. J. Frisch, G. W. Trucks, H. B. Schlegel, G. E. Scuseria, 
 M. A. Robb, J. R. Cheeseman, G. Scalmani, V. Barone, 
 G. A. Petersson, H. Nakatsuji, X. Li, M. Caricato, A. V. Marenich, 
 J. Bloino, B. G. Janesko, R. Gomperts, B. Mennucci, H. P. Hratchian, 
 J. V. Ortiz, A. F. Izmaylov, J. L. Sonnenberg, D. Williams-Young, 
 F. Ding, F. Lipparini, F. Egidi, J. Goings, B. Peng, A. Petrone, 
 T. Henderson, D. Ranasinghe, V. G. Zakrzewski, J. Gao, N. Rega, 
 G. Zheng, W. Liang, M. Hada, M. Ehara, K. Toyota, R. Fukuda, 
 J. Hasegawa, M. Ishida, T. Nakajima, Y. Honda, O. Kitao, H. Nakai, 
 T. Vreven, K. Throssell, J. A. Montgomery, Jr., J. E. Peralta, 
 F. Ogliaro, M. J. Bearpark, J. J. Heyd, E. N. Brothers, K. N. Kudin, 
 V. N. Staroverov, T. A. Keith, R. Kobayashi, J. Normand, 
 K. Raghavachari, A. P. Rendell, J. C. Burant, S. S. Iyengar, 
 J. Tomasi, M. Cossi, J. M. Millam, M. Klene, C. Adamo, R. Cammi, 
 J. W. Ochterski, R. L. Martin, K. Morokuma, O. Farkas, 
 J. B. Foresman, and D. J. Fox, Gaussian, Inc., Wallingford CT, 2016.
 
 ******************************************
 Gaussian 16:  ES64L-G16RevA.03 25-Dec-2016
                21-Jan-2025 
 ******************************************
 %chk=1-3-5-TFB.chk
 -----------------------------------------------
 #p PBE1PBE/6-311++G(d,p) density=current nosymm
 -----------------------------------------------
 1/30=1,38=1,172=1/1;
 2/12=2,15=1,17=6,18=5,40=1/2;
 3/5=4,6=6,7=1111,11=2,25=1,30=1,74=-13/1,2,3;
 4//1;
 5/5=2,38=5/2;
 6/7=2,8=2,9=2,10=2,22=-1,28=1/1;
 99/5=1,9=1/99;
 Leave Link    1 at Tue Jan 21 12:55:49 2025, MaxMem=           0 cpu:               0.0 elap:               0.0
 (Enter /sw/cluster/pub/apps//g16/l101.exe)
 ------------
 1 3 5-DFB SP
 ------------
 Symbolic Z-matrix:
 Charge =  0 Multiplicity = 1
 C                     1.1785    0.68047   0. 
 C                     1.2175   -0.70295   0. 
 C                     0.       -1.36092   0. 
 C                    -1.2175   -0.70295   0. 
 C                    -1.1785    0.68047   0. 
 C                     0.        1.40604   0. 
 H                     2.15458  -1.24386   0. 
 H                    -2.15458  -1.24386   0. 
 H                     0.        2.48801   0. 
 F                     0.       -2.69857   0. 
 F                    -2.33708   1.34906   0. 
 F                     2.33708   1.34906   0. 
 
 ITRead=  0  0  0  0  0  0  0  0  0  0  0  0
 MicOpt= -1 -1 -1 -1 -1 -1 -1 -1 -1 -1 -1 -1
 NAtoms=     12 NQM=       12 NQMF=       0 NMMI=      0 NMMIF=      0
                NMic=       0 NMicF=      0.
                    Isotopes and Nuclear Properties:
 (Nuclear quadrupole moments (NQMom) in fm**2, nuclear magnetic moments (NMagM)
  in nuclear magnetons)

  Atom         1           2           3           4           5           6           7           8           9          10
 IAtWgt=          12          12          12          12          12          12           1           1           1          19
 AtmWgt=  12.0000000  12.0000000  12.0000000  12.0000000  12.0000000  12.0000000   1.0078250   1.0078250   1.0078250  18.9984032
 NucSpn=           0           0           0           0           0           0           1           1           1           1
 AtZEff=  -0.0000000  -0.0000000  -0.0000000  -0.0000000  -0.0000000  -0.0000000  -0.0000000  -0.0000000  -0.0000000  -0.0000000
 NQMom=    0.0000000   0.0000000   0.0000000   0.0000000   0.0000000   0.0000000   0.0000000   0.0000000   0.0000000   0.0000000
 NMagM=    0.0000000   0.0000000   0.0000000   0.0000000   0.0000000   0.0000000   2.7928460   2.7928460   2.7928460   2.6288670
 AtZNuc=   6.0000000   6.0000000   6.0000000   6.0000000   6.0000000   6.0000000   1.0000000   1.0000000   1.0000000   9.0000000

  Atom        11          12
 IAtWgt=          19          19
 AtmWgt=  18.9984032  18.9984032
 NucSpn=           1           1
 AtZEff=  -0.0000000  -0.0000000
 NQMom=    0.0000000   0.0000000
 NMagM=    2.6288670   2.6288670
 AtZNuc=   9.0000000   9.0000000
 Leave Link  101 at Tue Jan 21 12:55:49 2025, MaxMem=   104857600 cpu:               0.0 elap:               0.0
 (Enter /sw/cluster/pub/apps//g16/l202.exe)
                          Input orientation:                          
 ---------------------------------------------------------------------
 Center     Atomic      Atomic             Coordinates (Angstroms)
 Number     Number       Type             X           Y           Z
 ---------------------------------------------------------------------
      1          6           0        1.178499    0.680466    0.000000
      2          6           0        1.217502   -0.702950    0.000000
      3          6           0        0.000000   -1.360916    0.000000
      4          6           0       -1.217502   -0.702950    0.000000
      5          6           0       -1.178499    0.680466    0.000000
      6          6           0        0.000000    1.406036    0.000000
      7          1           0        2.154583   -1.243860    0.000000
      8          1           0       -2.154583   -1.243860    0.000000
      9          1           0        0.000000    2.488014    0.000000
     10          9           0        0.000000   -2.698573    0.000000
     11          9           0       -2.337080    1.349064    0.000000
     12          9           0        2.337080    1.349064    0.000000
 ---------------------------------------------------------------------
                    Distance matrix (angstroms):
                    1          2          3          4          5
     1  C    0.000000
     2  C    1.383966   0.000000
     3  C    2.357138   1.383919   0.000000
     4  C    2.766706   2.435005   1.383919   0.000000
     5  C    2.356997   2.766706   2.357138   1.383966   0.000000
     6  C    1.383947   2.435186   2.766951   2.435186   1.383947
     7  H    2.157724   1.081991   2.157761   3.415194   3.848697
     8  H    3.848697   3.415194   2.157761   1.081991   2.157724
     9  H    2.157797   3.415343   3.848930   3.415343   2.157797
    10  F    3.578654   2.337696   1.337657   2.337696   3.578654
    11  F    3.578591   4.104366   3.578538   2.337566   1.337660
    12  F    1.337660   2.337566   3.578538   4.104366   3.578591
                    6          7          8          9         10
     6  C    0.000000
     7  H    3.415286   0.000000
     8  H    3.415286   4.309167   0.000000
     9  H    1.081979   4.309190   4.309190   0.000000
    10  F    4.104608   2.599696   2.599696   5.186587   0.000000
    11  F    2.337774   5.186357   2.599339   2.599837   4.673896
    12  F    2.337774   2.599339   5.186357   2.599837   4.673896
                   11         12
    11  F    0.000000
    12  F    4.674160   0.000000
 Symmetry turned off by external request.
 Stoichiometry    C6H3F3
 Framework group  C2V[C2(HCCF),SGV(C4H2F2)]
 Deg. of freedom    11
 Full point group                 C2V     NOp   4
 Rotational constants (GHZ):           1.7684019           1.7682861           0.8841720
 Leave Link  202 at Tue Jan 21 12:55:49 2025, MaxMem=   104857600 cpu:               0.0 elap:               0.0
 (Enter /sw/cluster/pub/apps//g16/l301.exe)
 Standard basis: 6-311++G(d,p) (5D, 7F)
 Ernie: Thresh=  0.10000D-02 Tol=  0.10000D-05 Strict=F.
   219 basis functions,   351 primitive gaussians,   228 cartesian basis functions
    33 alpha electrons       33 beta electrons
       nuclear repulsion energy       424.5038362727 Hartrees.
 IExCor= 1009 DFT=T Ex+Corr=PBE1PBE ExCW=0 ScaHFX=  0.250000
 ScaDFX=  0.750000  0.750000  1.000000  1.000000 ScalE2=  1.000000  1.000000
 IRadAn=      5 IRanWt=     -1 IRanGd=            0 ICorTp=0 IEmpDi=  4
 NAtoms=   12 NActive=   12 NUniq=   12 SFac= 1.00D+00 NAtFMM=   60 NAOKFM=F Big=F
 Integral buffers will be    131072 words long.
 Raffenetti 2 integral format.
 Two-electron integral symmetry is turned off.
 Leave Link  301 at Tue Jan 21 12:55:49 2025, MaxMem=   104857600 cpu:               0.0 elap:               0.0
 (Enter /sw/cluster/pub/apps//g16/l302.exe)
 NPDir=0 NMtPBC=     1 NCelOv=     1 NCel=       1 NClECP=     1 NCelD=      1
         NCelK=      1 NCelE2=     1 NClLst=     1 CellRange=     0.0.
 One-electron integrals computed using PRISM.
 NBasis=   219 RedAO= T EigKep=  2.72D-06  NBF=   219
 NBsUse=   219 1.00D-06 EigRej= -1.00D+00 NBFU=   219
 Precomputing XC quadrature grid using
 IXCGrd= 4 IRadAn=           5 IRanWt=          -1 IRanGd=           0 AccXCQ= 0.00D+00.
 Generated NRdTot=       0 NPtTot=           0 NUsed=           0 NTot=          32
 NSgBfM=   228   228   228   228   228 MxSgAt=    12 MxSgA2=    12.
 Leave Link  302 at Tue Jan 21 12:55:49 2025, MaxMem=   104857600 cpu:               0.1 elap:               0.1
 (Enter /sw/cluster/pub/apps//g16/l303.exe)
 DipDrv:  MaxL=1.
 Leave Link  303 at Tue Jan 21 12:55:49 2025, MaxMem=   104857600 cpu:               0.0 elap:               0.0
 (Enter /sw/cluster/pub/apps//g16/l401.exe)
 ExpMin= 3.60D-02 ExpMax= 1.14D+04 ExpMxC= 1.72D+03 IAcc=3 IRadAn=         5 AccDes= 0.00D+00
 Harris functional with IExCor= 1009 and IRadAn=       5 diagonalized for initial guess.
 HarFok:  IExCor= 1009 AccDes= 0.00D+00 IRadAn=         5 IDoV= 1 UseB2=F ITyADJ=14
 ICtDFT=  3500011 ScaDFX=  1.000000  1.000000  1.000000  1.000000
 FoFCou: FMM=F IPFlag=           0 FMFlag=      100000 FMFlg1=           0
         NFxFlg=           0 DoJE=T BraDBF=F KetDBF=T FulRan=T
         wScrn=  0.000000 ICntrl=       500 IOpCl=  0 I1Cent=   200000004 NGrid=           0
         NMat0=    1 NMatS0=      1 NMatT0=    0 NMatD0=    1 NMtDS0=    0 NMtDT0=    0
 Symmetry not used in FoFCou.
 Harris En= -529.611867299305    
 JPrj=0 DoOrth=F DoCkMO=F.
 Leave Link  401 at Tue Jan 21 12:55:50 2025, MaxMem=   104857600 cpu:               1.2 elap:               1.3
 (Enter /sw/cluster/pub/apps//g16/l502.exe)
 Two-electron integral symmetry not used.
 Closed shell SCF:
 Using DIIS extrapolation, IDIIS=  1040.
 NGot=   104857600 LenX=   104750604 LenY=   104698179
 Requested convergence on RMS density matrix=1.00D-08 within 128 cycles.
 Requested convergence on MAX density matrix=1.00D-06.
 Requested convergence on             energy=1.00D-06.
 No special actions if energy rises.
 Fock matrices will be formed incrementally for  20 cycles.

 Cycle   1  Pass 1  IDiag  1:
 FoFJK:  IHMeth= 1 ICntrl=       0 DoSepK=F KAlg= 0 I1Cent=           0 FoldK=F
 IRaf= 950000000 NMat=       1 IRICut=       1 DoRegI=T DoRafI=F ISym2E= 0 IDoP0=0 IntGTp=1.
 FoFCou: FMM=F IPFlag=           0 FMFlag=      100000 FMFlg1=           0
         NFxFlg=           0 DoJE=F BraDBF=F KetDBF=F FulRan=T
         wScrn=  0.000000 ICntrl=         0 IOpCl=  0 I1Cent=           0 NGrid=           0
         NMat0=    1 NMatS0=      1 NMatT0=    0 NMatD0=    1 NMtDS0=    0 NMtDT0=    0
 Symmetry not used in FoFCou.
 E= -529.416870375736    
 DIIS: error= 3.24D-02 at cycle   1 NSaved=   1.
 NSaved= 1 IEnMin= 1 EnMin= -529.416870375736     IErMin= 1 ErrMin= 3.24D-02
 ErrMax= 3.24D-02  0.00D+00 EMaxC= 1.00D-01 BMatC= 1.74D-01 BMatP= 1.74D-01
 IDIUse=3 WtCom= 6.76D-01 WtEn= 3.24D-01
 Coeff-Com:  0.100D+01
 Coeff-En:   0.100D+01
 Coeff:      0.100D+01
 Gap=     0.239 Goal=   None    Shift=    0.000
 GapD=    0.239 DampG=1.000 DampE=0.500 DampFc=0.5000 IDamp=-1.
 Damping current iteration by 5.00D-01
 RMSDP=1.34D-02 MaxDP=4.89D-01              OVMax= 2.13D-01

 Cycle   2  Pass 1  IDiag  1:
 RMSU=  3.18D-03    CP:  9.07D-01
 E= -529.482838223075     Delta-E=       -0.065967847339 Rises=F Damp=T
 DIIS: error= 6.63D-03 at cycle   2 NSaved=   2.
 NSaved= 2 IEnMin= 2 EnMin= -529.482838223075     IErMin= 2 ErrMin= 6.63D-03
 ErrMax= 6.63D-03  0.00D+00 EMaxC= 1.00D-01 BMatC= 1.29D-02 BMatP= 1.74D-01
 IDIUse=3 WtCom= 9.34D-01 WtEn= 6.63D-02
 Coeff-Com: -0.262D-01 0.103D+01
 Coeff-En:   0.240D-01 0.976D+00
 Coeff:     -0.229D-01 0.102D+01
 Gap=     0.286 Goal=   None    Shift=    0.000
 RMSDP=2.75D-03 MaxDP=5.52D-02 DE=-6.60D-02 OVMax= 1.29D-01

 Cycle   3  Pass 1  IDiag  1:
 RMSU=  2.73D-03    CP:  9.03D-01  9.29D-01
 E= -529.551089844209     Delta-E=       -0.068251621134 Rises=F Damp=F
 DIIS: error= 8.00D-03 at cycle   3 NSaved=   3.
 NSaved= 3 IEnMin= 3 EnMin= -529.551089844209     IErMin= 2 ErrMin= 6.63D-03
 ErrMax= 8.00D-03  0.00D+00 EMaxC= 1.00D-01 BMatC= 6.28D-03 BMatP= 1.29D-02
 IDIUse=3 WtCom= 9.20D-01 WtEn= 8.00D-02
 Coeff-Com: -0.641D-01 0.429D+00 0.635D+00
 Coeff-En:   0.000D+00 0.000D+00 0.100D+01
 Coeff:     -0.590D-01 0.395D+00 0.664D+00
 Gap=     0.260 Goal=   None    Shift=    0.000
 RMSDP=2.64D-03 MaxDP=1.40D-01 DE=-6.83D-02 OVMax= 2.66D-02

 Cycle   4  Pass 1  IDiag  1:
 RMSU=  8.44D-04    CP:  8.66D-01  1.11D+00  7.34D-01
 E= -529.554718692098     Delta-E=       -0.003628847889 Rises=F Damp=F
 DIIS: error= 3.36D-03 at cycle   4 NSaved=   4.
 NSaved= 4 IEnMin= 4 EnMin= -529.554718692098     IErMin= 4 ErrMin= 3.36D-03
 ErrMax= 3.36D-03  0.00D+00 EMaxC= 1.00D-01 BMatC= 1.67D-03 BMatP= 6.28D-03
 IDIUse=3 WtCom= 9.66D-01 WtEn= 3.36D-02
 Coeff-Com: -0.303D-01 0.100D+00 0.373D+00 0.557D+00
 Coeff-En:   0.000D+00 0.000D+00 0.155D+00 0.845D+00
 Coeff:     -0.293D-01 0.968D-01 0.366D+00 0.567D+00
 Gap=     0.259 Goal=   None    Shift=    0.000
 RMSDP=3.80D-04 MaxDP=1.84D-02 DE=-3.63D-03 OVMax= 4.47D-03

 Cycle   5  Pass 1  IDiag  1:
 RMSU=  1.44D-04    CP:  8.69D-01  1.12D+00  7.83D-01  6.79D-01
 E= -529.555616828384     Delta-E=       -0.000898136286 Rises=F Damp=F
 DIIS: error= 5.56D-04 at cycle   5 NSaved=   5.
 NSaved= 5 IEnMin= 5 EnMin= -529.555616828384     IErMin= 5 ErrMin= 5.56D-04
 ErrMax= 5.56D-04  0.00D+00 EMaxC= 1.00D-01 BMatC= 5.25D-05 BMatP= 1.67D-03
 IDIUse=3 WtCom= 9.94D-01 WtEn= 5.56D-03
 Coeff-Com: -0.905D-02 0.235D-01 0.140D+00 0.268D+00 0.577D+00
 Coeff-En:   0.000D+00 0.000D+00 0.000D+00 0.000D+00 0.100D+01
 Coeff:     -0.900D-02 0.233D-01 0.139D+00 0.266D+00 0.580D+00
 Gap=     0.260 Goal=   None    Shift=    0.000
 RMSDP=2.55D-04 MaxDP=1.36D-02 DE=-8.98D-04 OVMax= 1.26D-03

 Cycle   6  Pass 1  IDiag  1:
 RMSU=  6.58D-05    CP:  8.65D-01  1.14D+00  7.60D-01  7.04D-01  1.08D+00
 E= -529.555653393994     Delta-E=       -0.000036565610 Rises=F Damp=F
 DIIS: error= 1.49D-04 at cycle   6 NSaved=   6.
 NSaved= 6 IEnMin= 6 EnMin= -529.555653393994     IErMin= 6 ErrMin= 1.49D-04
 ErrMax= 1.49D-04  0.00D+00 EMaxC= 1.00D-01 BMatC= 3.88D-06 BMatP= 5.25D-05
 IDIUse=3 WtCom= 9.99D-01 WtEn= 1.49D-03
 Coeff-Com: -0.116D-02 0.127D-02 0.315D-01 0.664D-01 0.268D+00 0.634D+00
 Coeff-En:   0.000D+00 0.000D+00 0.000D+00 0.000D+00 0.000D+00 0.100D+01
 Coeff:     -0.115D-02 0.126D-02 0.315D-01 0.663D-01 0.268D+00 0.635D+00
 Gap=     0.260 Goal=   None    Shift=    0.000
 RMSDP=9.74D-05 MaxDP=3.95D-03 DE=-3.66D-05 OVMax= 4.06D-04

 Cycle   7  Pass 1  IDiag  1:
 RMSU=  1.02D-05    CP:  8.67D-01  1.13D+00  7.71D-01  7.04D-01  9.88D-01
                    CP:  8.11D-01
 E= -529.555656710376     Delta-E=       -0.000003316382 Rises=F Damp=F
 DIIS: error= 2.26D-05 at cycle   7 NSaved=   7.
 NSaved= 7 IEnMin= 7 EnMin= -529.555656710376     IErMin= 7 ErrMin= 2.26D-05
 ErrMax= 2.26D-05  0.00D+00 EMaxC= 1.00D-01 BMatC= 4.51D-08 BMatP= 3.88D-06
 IDIUse=1 WtCom= 1.00D+00 WtEn= 0.00D+00
 Coeff-Com:  0.347D-03-0.105D-02 0.268D-03-0.119D-02 0.772D-02 0.534D-01
 Coeff-Com:  0.941D+00
 Coeff:      0.347D-03-0.105D-02 0.268D-03-0.119D-02 0.772D-02 0.534D-01
 Coeff:      0.941D+00
 Gap=     0.260 Goal=   None    Shift=    0.000
 RMSDP=1.05D-05 MaxDP=3.80D-04 DE=-3.32D-06 OVMax= 3.69D-05

 Cycle   8  Pass 1  IDiag  1:
 RMSU=  1.70D-06    CP:  8.67D-01  1.13D+00  7.71D-01  7.01D-01  1.01D+00
                    CP:  8.23D-01  8.60D-01
 E= -529.555656750172     Delta-E=       -0.000000039796 Rises=F Damp=F
 DIIS: error= 3.80D-06 at cycle   8 NSaved=   8.
 NSaved= 8 IEnMin= 8 EnMin= -529.555656750172     IErMin= 8 ErrMin= 3.80D-06
 ErrMax= 3.80D-06  0.00D+00 EMaxC= 1.00D-01 BMatC= 1.95D-09 BMatP= 4.51D-08
 IDIUse=1 WtCom= 1.00D+00 WtEn= 0.00D+00
 Coeff-Com:  0.152D-03-0.317D-03-0.105D-02-0.299D-02-0.101D-01-0.121D-01
 Coeff-Com:  0.213D+00 0.814D+00
 Coeff:      0.152D-03-0.317D-03-0.105D-02-0.299D-02-0.101D-01-0.121D-01
 Coeff:      0.213D+00 0.814D+00
 Gap=     0.260 Goal=   None    Shift=    0.000
 RMSDP=1.22D-06 MaxDP=5.73D-05 DE=-3.98D-08 OVMax= 1.37D-05

 Cycle   9  Pass 1  IDiag  1:
 RMSU=  1.91D-07    CP:  8.67D-01  1.13D+00  7.71D-01  7.02D-01  1.01D+00
                    CP:  8.27D-01  9.08D-01  9.06D-01
 E= -529.555656751717     Delta-E=       -0.000000001545 Rises=F Damp=F
 DIIS: error= 8.00D-07 at cycle   9 NSaved=   9.
 NSaved= 9 IEnMin= 9 EnMin= -529.555656751717     IErMin= 9 ErrMin= 8.00D-07
 ErrMax= 8.00D-07  0.00D+00 EMaxC= 1.00D-01 BMatC= 8.91D-11 BMatP= 1.95D-09
 IDIUse=1 WtCom= 1.00D+00 WtEn= 0.00D+00
 Coeff-Com:  0.685D-05-0.818D-05-0.272D-04-0.121D-03-0.103D-02-0.187D-03
 Coeff-Com: -0.178D-01 0.194D-01 0.100D+01
 Coeff:      0.685D-05-0.818D-05-0.272D-04-0.121D-03-0.103D-02-0.187D-03
 Coeff:     -0.178D-01 0.194D-01 0.100D+01
 Gap=     0.260 Goal=   None    Shift=    0.000
 RMSDP=2.28D-07 MaxDP=9.04D-06 DE=-1.55D-09 OVMax= 5.89D-06

 Cycle  10  Pass 1  IDiag  1:
 RMSU=  9.43D-08    CP:  8.67D-01  1.13D+00  7.71D-01  7.01D-01  1.01D+00
                    CP:  8.28D-01  9.04D-01  9.34D-01  9.73D-01
 E= -529.555656751771     Delta-E=       -0.000000000054 Rises=F Damp=F
 DIIS: error= 6.12D-07 at cycle  10 NSaved=  10.
 NSaved=10 IEnMin=10 EnMin= -529.555656751771     IErMin=10 ErrMin= 6.12D-07
 ErrMax= 6.12D-07  0.00D+00 EMaxC= 1.00D-01 BMatC= 3.35D-11 BMatP= 8.91D-11
 IDIUse=1 WtCom= 1.00D+00 WtEn= 0.00D+00
 Coeff-Com: -0.234D-05 0.876D-05 0.355D-04 0.670D-04-0.182D-03 0.547D-03
 Coeff-Com: -0.219D-01-0.282D-01 0.632D+00 0.417D+00
 Coeff:     -0.234D-05 0.876D-05 0.355D-04 0.670D-04-0.182D-03 0.547D-03
 Coeff:     -0.219D-01-0.282D-01 0.632D+00 0.417D+00
 Gap=     0.260 Goal=   None    Shift=    0.000
 RMSDP=5.91D-08 MaxDP=2.32D-06 DE=-5.45D-11 OVMax= 2.94D-06

 Cycle  11  Pass 1  IDiag  1:
 RMSU=  2.93D-08    CP:  8.67D-01  1.13D+00  7.71D-01  7.01D-01  1.01D+00
                    CP:  8.28D-01  9.03D-01  9.36D-01  1.06D+00  5.10D-01
 E= -529.555656751807     Delta-E=       -0.000000000035 Rises=F Damp=F
 DIIS: error= 6.43D-08 at cycle  11 NSaved=  11.
 NSaved=11 IEnMin=11 EnMin= -529.555656751807     IErMin=11 ErrMin= 6.43D-08
 ErrMax= 6.43D-08  0.00D+00 EMaxC= 1.00D-01 BMatC= 5.64D-13 BMatP= 3.35D-11
 IDIUse=1 WtCom= 1.00D+00 WtEn= 0.00D+00
 Coeff-Com: -0.253D-06 0.595D-06 0.966D-05 0.191D-04 0.625D-04 0.147D-03
 Coeff-Com: -0.163D-02-0.632D-02-0.997D-02 0.768D-01 0.941D+00
 Coeff:     -0.253D-06 0.595D-06 0.966D-05 0.191D-04 0.625D-04 0.147D-03
 Coeff:     -0.163D-02-0.632D-02-0.997D-02 0.768D-01 0.941D+00
 Gap=     0.260 Goal=   None    Shift=    0.000
 RMSDP=2.08D-08 MaxDP=1.03D-06 DE=-3.52D-11 OVMax= 3.57D-07

 Cycle  12  Pass 1  IDiag  1:
 RMSU=  4.04D-09    CP:  8.67D-01  1.13D+00  7.71D-01  7.01D-01  1.01D+00
                    CP:  8.28D-01  9.03D-01  9.37D-01  1.07D+00  5.66D-01
                    CP:  1.00D+00
 E= -529.555656751809     Delta-E=       -0.000000000003 Rises=F Damp=F
 DIIS: error= 7.34D-09 at cycle  12 NSaved=  12.
 NSaved=12 IEnMin=12 EnMin= -529.555656751809     IErMin=12 ErrMin= 7.34D-09
 ErrMax= 7.34D-09  0.00D+00 EMaxC= 1.00D-01 BMatC= 7.08D-15 BMatP= 5.64D-13
 IDIUse=1 WtCom= 1.00D+00 WtEn= 0.00D+00
 Coeff-Com:  0.166D-07-0.547D-07 0.913D-06 0.108D-05 0.711D-05 0.172D-04
 Coeff-Com:  0.549D-04-0.368D-03-0.976D-02 0.216D-03 0.725D-01 0.937D+00
 Coeff:      0.166D-07-0.547D-07 0.913D-06 0.108D-05 0.711D-05 0.172D-04
 Coeff:      0.549D-04-0.368D-03-0.976D-02 0.216D-03 0.725D-01 0.937D+00
 Gap=     0.260 Goal=   None    Shift=    0.000
 RMSDP=1.97D-09 MaxDP=1.16D-07 DE=-2.73D-12 OVMax= 1.74D-08

 SCF Done:  E(RPBE1PBE) =  -529.555656752     A.U. after   12 cycles
            NFock= 12  Conv=0.20D-08     -V/T= 2.0029
 KE= 5.280145014631D+02 PE=-2.098135012537D+03 EE= 6.160610180499D+02
 Leave Link  502 at Tue Jan 21 12:56:24 2025, MaxMem=   104857600 cpu:              33.6 elap:              33.6
 (Enter /sw/cluster/pub/apps//g16/l601.exe)
 Copying SCF densities to generalized density rwf, IOpCl= 0 IROHF=0.

 **********************************************************************

            Population analysis using the SCF density.

 **********************************************************************

 Alpha  occ. eigenvalues --  -24.80333 -24.80333 -24.80333 -10.34438 -10.34437
 Alpha  occ. eigenvalues --  -10.34436 -10.25567 -10.25566 -10.25565  -1.28953
 Alpha  occ. eigenvalues --   -1.28876  -1.28876  -0.92811  -0.81119  -0.81117
 Alpha  occ. eigenvalues --   -0.68201  -0.68200  -0.61777  -0.58187  -0.54966
 Alpha  occ. eigenvalues --   -0.54371  -0.54368  -0.52472  -0.50555  -0.50555
 Alpha  occ. eigenvalues --   -0.47494  -0.47492  -0.42172  -0.42171  -0.40815
 Alpha  occ. eigenvalues --   -0.38694  -0.28693  -0.28691
 Alpha virt. eigenvalues --   -0.02723  -0.02722   0.00324   0.02182   0.02183
 Alpha virt. eigenvalues --    0.03468   0.04975   0.04975   0.05492   0.08621
 Alpha virt. eigenvalues --    0.09552   0.09553   0.11541   0.12743   0.12784
 Alpha virt. eigenvalues --    0.12784   0.12866   0.13549   0.13769   0.13770
 Alpha virt. eigenvalues --    0.13778   0.13779   0.15404   0.15404   0.18108
 Alpha virt. eigenvalues --    0.18109   0.18749   0.20622   0.20622   0.22374
 Alpha virt. eigenvalues --    0.22376   0.26143   0.26502   0.27133   0.27236
 Alpha virt. eigenvalues --    0.27680   0.27682   0.33758   0.33759   0.34591
 Alpha virt. eigenvalues --    0.35256   0.36004   0.36004   0.36991   0.36993
 Alpha virt. eigenvalues --    0.40986   0.40989   0.43032   0.43305   0.43307
 Alpha virt. eigenvalues --    0.46010   0.46013   0.47034   0.50680   0.54163
 Alpha virt. eigenvalues --    0.56660   0.56660   0.56960   0.56960   0.58378
 Alpha virt. eigenvalues --    0.61654   0.61654   0.66166   0.67120   0.68570
 Alpha virt. eigenvalues --    0.68574   0.71980   0.78247   0.78249   0.79930
 Alpha virt. eigenvalues --    0.84103   0.84105   0.89878   0.90965   0.90967
 Alpha virt. eigenvalues --    0.91144   0.95871   0.95873   0.96198   1.02939
 Alpha virt. eigenvalues --    1.02940   1.04208   1.06567   1.06571   1.19202
 Alpha virt. eigenvalues --    1.19204   1.24268   1.34683   1.39784   1.42635
 Alpha virt. eigenvalues --    1.42636   1.42998   1.44567   1.44568   1.46616
 Alpha virt. eigenvalues --    1.52970   1.52977   1.53825   1.53834   1.54747
 Alpha virt. eigenvalues --    1.56927   1.58336   1.58960   1.58960   1.64558
 Alpha virt. eigenvalues --    1.64558   1.83187   1.83196   1.88407   1.88412
 Alpha virt. eigenvalues --    1.91477   1.91483   1.95842   1.95847   1.95888
 Alpha virt. eigenvalues --    2.03550   2.05846   2.05848   2.07566   2.08795
 Alpha virt. eigenvalues --    2.08797   2.13272   2.28022   2.28026   2.29945
 Alpha virt. eigenvalues --    2.45814   2.45815   2.57160   2.62645   2.62899
 Alpha virt. eigenvalues --    2.72247   2.72248   2.74009   2.74380   2.74382
 Alpha virt. eigenvalues --    2.77919   2.77928   2.87272   2.87274   3.07255
 Alpha virt. eigenvalues --    3.12680   3.15438   3.20434   3.20436   3.36746
 Alpha virt. eigenvalues --    3.36748   3.62445   3.63616   3.63618   3.78437
 Alpha virt. eigenvalues --    3.78492   3.78492   3.79334   3.84548   3.86521
 Alpha virt. eigenvalues --    3.86523   3.99430   3.99431   3.99871   4.13058
 Alpha virt. eigenvalues --    4.13848   4.13859   4.16657   4.16664   4.81711
 Alpha virt. eigenvalues --    4.87598   4.89275   4.89275   6.33939   6.35667
 Alpha virt. eigenvalues --    6.35667   6.47649   6.47663   6.47665   6.73250
 Alpha virt. eigenvalues --    6.82738   6.82739  23.59441  23.97645  23.97649
 Alpha virt. eigenvalues --   24.17540  24.17544  24.27203  66.93391  66.94389
 Alpha virt. eigenvalues --   66.94389
          Condensed to atoms (all electrons):
               1          2          3          4          5          6
     1  C    9.735473  -3.208238   2.617663  -2.178083   2.618083  -3.210257
     2  C   -3.208238  11.991854  -3.208836   1.010675  -2.178083   1.011892
     3  C    2.617663  -3.208836   9.735534  -3.208836   2.617663  -2.178324
     4  C   -2.178083   1.010675  -3.208836  11.991854  -3.208238   1.011892
     5  C    2.618083  -2.178083   2.617663  -3.208238   9.735473  -3.210257
     6  C   -3.210257   1.011892  -2.178324   1.011892  -3.210257  11.994043
     7  H   -0.147179   0.636218  -0.147178  -0.017931  -0.011980  -0.017927
     8  H   -0.011980  -0.017931  -0.147178   0.636218  -0.147179  -0.017927
     9  H   -0.147231  -0.017867  -0.012000  -0.017867  -0.147231   0.636219
    10  F    0.012530  -0.286848   0.596581  -0.286848   0.012530  -0.005010
    11  F    0.012560  -0.005043   0.012556  -0.286953   0.596612  -0.286767
    12  F    0.596612  -0.286953   0.012556  -0.005043   0.012560  -0.286767
               7          8          9         10         11         12
     1  C   -0.147179  -0.011980  -0.147231   0.012530   0.012560   0.596612
     2  C    0.636218  -0.017931  -0.017867  -0.286848  -0.005043  -0.286953
     3  C   -0.147178  -0.147178  -0.012000   0.596581   0.012556   0.012556
     4  C   -0.017931   0.636218  -0.017867  -0.286848  -0.286953  -0.005043
     5  C   -0.011980  -0.147179  -0.147231   0.012530   0.596612   0.012560
     6  C   -0.017927  -0.017927   0.636219  -0.005010  -0.286767  -0.286767
     7  H    0.468507   0.000021   0.000021  -0.019326   0.000413  -0.019333
     8  H    0.000021   0.468507   0.000021  -0.019326  -0.019333   0.000413
     9  H    0.000021   0.000021   0.468488   0.000413  -0.019322  -0.019322
    10  F   -0.019326  -0.019326   0.000413   9.140919  -0.000397  -0.000397
    11  F    0.000413  -0.019333  -0.019322  -0.000397   9.140874  -0.000397
    12  F   -0.019333   0.000413  -0.019322  -0.000397  -0.000397   9.140874
 Mulliken charges:
               1
     1  C   -0.689954
     2  C    0.559160
     3  C   -0.690200
     4  C    0.559160
     5  C   -0.689954
     6  C    0.559189
     7  H    0.275673
     8  H    0.275673
     9  H    0.275677
    10  F   -0.144823
    11  F   -0.144802
    12  F   -0.144802
 Sum of Mulliken charges =  -0.00000
 Mulliken charges with hydrogens summed into heavy atoms:
               1
     1  C   -0.689954
     2  C    0.834834
     3  C   -0.690200
     4  C    0.834834
     5  C   -0.689954
     6  C    0.834866
    10  F   -0.144823
    11  F   -0.144802
    12  F   -0.144802
 Electronic spatial extent (au):  <R**2>=           1127.4127
 Charge=             -0.0000 electrons
 Dipole moment (field-independent basis, Debye):
    X=              0.0000    Y=              0.0006    Z=             -0.0000  Tot=              0.0006
 Quadrupole moment (field-independent basis, Debye-Ang):
   XX=            -50.7436   YY=            -50.7406   ZZ=            -50.3413
   XY=             -0.0000   XZ=             -0.0000   YZ=             -0.0000
 Traceless Quadrupole moment (field-independent basis, Debye-Ang):
   XX=             -0.1351   YY=             -0.1322   ZZ=              0.2672
   XY=             -0.0000   XZ=             -0.0000   YZ=             -0.0000
 Octapole moment (field-independent basis, Debye-Ang**2):
  XXX=              0.0000  YYY=             18.9606  ZZZ=             -0.0000  XYY=              0.0000
  XXY=            -18.9498  XXZ=             -0.0000  XZZ=              0.0000  YZZ=              0.0009
  YYZ=             -0.0000  XYZ=             -0.0000
 Hexadecapole moment (field-independent basis, Debye-Ang**3):
 XXXX=           -606.8308 YYYY=           -606.7952 ZZZZ=            -49.8925 XXXY=             -0.0000
 XXXZ=             -0.0000 YYYX=             -0.0000 YYYZ=             -0.0000 ZZZX=             -0.0000
 ZZZY=             -0.0000 XXYY=           -202.2701 XXZZ=           -107.9892 YYZZ=           -107.9863
 XXYZ=             -0.0000 YYXZ=             -0.0000 ZZXY=             -0.0000
 N-N= 4.245038362727D+02 E-N=-2.098135012048D+03  KE= 5.280145014631D+02
 No NMR shielding tensors so no spin-rotation constants.
 Leave Link  601 at Tue Jan 21 12:56:24 2025, MaxMem=   104857600 cpu:               0.0 elap:               0.0
 (Enter /sw/cluster/pub/apps//g16/l9999.exe)
 1\1\GINC-N02\SP\RPBE1PBE\6-311++G(d,p)\C6H3F3\UNKNOWN\21-Jan-2025\0\\#
 p PBE1PBE/6-311++G(d,p) density=current nosymm\\1 3 5-DFB SP\\0,1\C,0,
 1.178498546,0.680465881,0.\C,0,1.217502391,-0.70295012,0.\C,0,0.,-1.36
 0915686,0.\C,0,-1.217502391,-0.70295012,0.\C,0,-1.178498546,0.68046588
 1,0.\C,0,0.,1.406035518,0.\H,0,2.154583455,-1.243860366,0.\H,0,-2.1545
 83455,-1.243860366,0.\H,0,0.,2.488014161,0.\F,0,0.,-2.698572883,0.\F,0
 ,-2.337080067,1.349064058,0.\F,0,2.337080067,1.349064058,0.000000001\\
 Version=ES64L-G16RevA.03\HF=-529.5556568\RMSD=1.968e-09\Dipole=0.,0.00
 02371,0.\Quadrupole=-0.1004253,-0.098254,0.1986793,0.,0.,0.\PG=C02V [C
 2(H1C1C1F1),SGV(C4H2F2)]\\@


 WE HAVE LEARNED THAT NOTHING IS SIMPLE AND
 RATIONAL EXCEPT WHAT WE OURSELVES HAVE INVENTED;
 THAT GOD THINKS IN TERMS NEITHER OF EUCLID OR RIEMANN; THAT SCIENCE HAS "EXPLAINED" NOTHING;
 THAT THE MORE WE KNOW THE MORE FANTASTIC THE WORLD BECOMES
 AND THE PROFOUNDER THE SURROUNDING DARKNESS.
   --  ALDOUS HUXLEY
 Job cpu time:       0 days  0 hours  0 minutes 35.1 seconds.
 Elapsed time:       0 days  0 hours  0 minutes 35.1 seconds.
 File lengths (MBytes):  RWF=     31 Int=      0 D2E=      0 Chk=      4 Scr=      1
 Normal termination of Gaussian 16 at Tue Jan 21 12:56:24 2025.
