 Entering Gaussian System, Link 0=g16
 Initial command:
 /sw/cluster/pub/apps//g16/l1.exe "/data/natrosa/28474/Gau-5599.inp" -scrdir="/data/natrosa/28474/"
 Entering Link 1 = /sw/cluster/pub/apps//g16/l1.exe PID=      5600.
  
 Copyright (c) 1988,1990,1992,1993,1995,1998,2003,2009,2016,
            Gaussian, Inc.  All Rights Reserved.
  
 This is part of the Gaussian(R) 16 program.  It is based on
 the Gaussian(R) 09 system (copyright 2009, Gaussian, Inc.),
 the Gaussian(R) 03 system (copyright 2003, Gaussian, Inc.),
 the Gaussian(R) 98 system (copyright 1998, Gaussian, Inc.),
 the Gaussian(R) 94 system (copyright 1995, Gaussian, Inc.),
 the Gaussian 92(TM) system (copyright 1992, Gaussian, Inc.),
 the Gaussian 90(TM) system (copyright 1990, Gaussian, Inc.),
 the Gaussian 88(TM) system (copyright 1988, Gaussian, Inc.),
 the Gaussian 86(TM) system (copyright 1986, Carnegie Mellon
 University), and the Gaussian 82(TM) system (copyright 1983,
 Carnegie Mellon University). Gaussian is a federally registered
 trademark of Gaussian, Inc.
  
 This software contains proprietary and confidential information,
 including trade secrets, belonging to Gaussian, Inc.
  
 This software is provided under written license and may be
 used, copied, transmitted, or stored only in accord with that
 written license.
  
 The following legend is applicable only to US Government
 contracts under FAR:
  
                    RESTRICTED RIGHTS LEGEND
  
 Use, reproduction and disclosure by the US Government is
 subject to restrictions as set forth in subparagraphs (a)
 and (c) of the Commercial Computer Software - Restricted
 Rights clause in FAR 52.227-19.
  
 Gaussian, Inc.
 340 Quinnipiac St., Bldg. 40, Wallingford CT 06492
  
  
 ---------------------------------------------------------------
 Warning -- This program may not be used in any manner that
 competes with the business of Gaussian, Inc. or will provide
 assistance to any competitor of Gaussian, Inc.  The licensee
 of this program is prohibited from giving any competitor of
 Gaussian, Inc. access to this program.  By using this program,
 the user acknowledges that Gaussian, Inc. is engaged in the
 business of creating and licensing software in the field of
 computational chemistry and represents and warrants to the
 licensee that it is not a competitor of Gaussian, Inc. and that
 it will not use this program in any manner prohibited above.
 ---------------------------------------------------------------
  

 Cite this work as:
 Gaussian 16, Revision A.03,
 M. J. Frisch, G. W. Trucks, H. B. Schlegel, G. E. Scuseria, 
 M. A. Robb, J. R. Cheeseman, G. Scalmani, V. Barone, 
 G. A. Petersson, H. Nakatsuji, X. Li, M. Caricato, A. V. Marenich, 
 J. Bloino, B. G. Janesko, R. Gomperts, B. Mennucci, H. P. Hratchian, 
 J. V. Ortiz, A. F. Izmaylov, J. L. Sonnenberg, D. Williams-Young, 
 F. Ding, F. Lipparini, F. Egidi, J. Goings, B. Peng, A. Petrone, 
 T. Henderson, D. Ranasinghe, V. G. Zakrzewski, J. Gao, N. Rega, 
 G. Zheng, W. Liang, M. Hada, M. Ehara, K. Toyota, R. Fukuda, 
 J. Hasegawa, M. Ishida, T. Nakajima, Y. Honda, O. Kitao, H. Nakai, 
 T. Vreven, K. Throssell, J. A. Montgomery, Jr., J. E. Peralta, 
 F. Ogliaro, M. J. Bearpark, J. J. Heyd, E. N. Brothers, K. N. Kudin, 
 V. N. Staroverov, T. A. Keith, R. Kobayashi, J. Normand, 
 K. Raghavachari, A. P. Rendell, J. C. Burant, S. S. Iyengar, 
 J. Tomasi, M. Cossi, J. M. Millam, M. Klene, C. Adamo, R. Cammi, 
 J. W. Ochterski, R. L. Martin, K. Morokuma, O. Farkas, 
 J. B. Foresman, and D. J. Fox, Gaussian, Inc., Wallingford CT, 2016.
 
 ******************************************
 Gaussian 16:  ES64L-G16RevA.03 25-Dec-2016
                30-Jan-2025 
 ******************************************
 %chk=1-3-5-TFB-ANI.chk
 --------------------------------------------------------
 #p opt freq PBE1PBE/6-311++G(d,p) density=current nosymm
 --------------------------------------------------------
 1/18=20,19=15,26=3,38=1/1,3;
 2/9=110,12=2,15=1,17=6,18=5,40=1/2;
 3/5=4,6=6,7=1111,11=2,25=1,30=1,71=1,74=-13/1,2,3;
 4//1;
 5/5=2,38=5/2;
 6/7=2,8=2,9=2,10=2,22=-1,28=1/1;
 7/30=1/1,2,3,16;
 1/18=20,19=15,26=3/3(2);
 2/9=110,15=1/2;
 99//99;
 2/9=110,15=1/2;
 3/5=4,6=6,7=1111,11=2,25=1,30=1,71=1,74=-13/1,2,3;
 4/5=5,16=3,69=1/1;
 5/5=2,38=5/2;
 7/30=1/1,2,3,16;
 1/18=20,19=15,26=3/3(-5);
 2/9=110,15=1/2;
 6/7=2,8=2,9=2,10=2,19=2,22=-1,28=1/1;
 99/9=1/99;
 Leave Link    1 at Thu Jan 30 13:01:51 2025, MaxMem=           0 cpu:               0.0 elap:               0.0
 (Enter /sw/cluster/pub/apps//g16/l101.exe)
 ------------
 1 3 5-DFB SP
 ------------
 Symbolic Z-matrix:
 Charge = -1 Multiplicity = 2
 C                     1.1785    0.68047   0. 
 C                     1.2175   -0.70295   0. 
 C                     0.       -1.36092   0. 
 C                    -1.2175   -0.70295   0. 
 C                    -1.1785    0.68047   0. 
 C                     0.        1.40604   0. 
 H                     2.15458  -1.24386   0. 
 H                    -2.15458  -1.24386   0. 
 H                     0.        2.48801   0. 
 F                     0.       -2.69857   0. 
 F                    -2.33708   1.34906   0. 
 F                     2.33708   1.34906   0. 
 
 ITRead=  0  0  0  0  0  0  0  0  0  0  0  0
 MicOpt= -1 -1 -1 -1 -1 -1 -1 -1 -1 -1 -1 -1
 NAtoms=     12 NQM=       12 NQMF=       0 NMMI=      0 NMMIF=      0
                NMic=       0 NMicF=      0.
                    Isotopes and Nuclear Properties:
 (Nuclear quadrupole moments (NQMom) in fm**2, nuclear magnetic moments (NMagM)
  in nuclear magnetons)

  Atom         1           2           3           4           5           6           7           8           9          10
 IAtWgt=          12          12          12          12          12          12           1           1           1          19
 AtmWgt=  12.0000000  12.0000000  12.0000000  12.0000000  12.0000000  12.0000000   1.0078250   1.0078250   1.0078250  18.9984032
 NucSpn=           0           0           0           0           0           0           1           1           1           1
 AtZEff=  -0.0000000  -0.0000000  -0.0000000  -0.0000000  -0.0000000  -0.0000000  -0.0000000  -0.0000000  -0.0000000  -0.0000000
 NQMom=    0.0000000   0.0000000   0.0000000   0.0000000   0.0000000   0.0000000   0.0000000   0.0000000   0.0000000   0.0000000
 NMagM=    0.0000000   0.0000000   0.0000000   0.0000000   0.0000000   0.0000000   2.7928460   2.7928460   2.7928460   2.6288670
 AtZNuc=   6.0000000   6.0000000   6.0000000   6.0000000   6.0000000   6.0000000   1.0000000   1.0000000   1.0000000   9.0000000

  Atom        11          12
 IAtWgt=          19          19
 AtmWgt=  18.9984032  18.9984032
 NucSpn=           1           1
 AtZEff=  -0.0000000  -0.0000000
 NQMom=    0.0000000   0.0000000
 NMagM=    2.6288670   2.6288670
 AtZNuc=   9.0000000   9.0000000
 Leave Link  101 at Thu Jan 30 13:01:51 2025, MaxMem=   104857600 cpu:               0.0 elap:               0.0
 (Enter /sw/cluster/pub/apps//g16/l103.exe)

 GradGradGradGradGradGradGradGradGradGradGradGradGradGradGradGradGradGrad
 Berny optimization.
 Initialization pass.
                           ----------------------------
                           !    Initial Parameters    !
                           ! (Angstroms and Degrees)  !
 --------------------------                            --------------------------
 ! Name  Definition              Value          Derivative Info.                !
 --------------------------------------------------------------------------------
 ! R1    R(1,2)                  1.384          estimate D2E/DX2                !
 ! R2    R(1,6)                  1.3839         estimate D2E/DX2                !
 ! R3    R(1,12)                 1.3377         estimate D2E/DX2                !
 ! R4    R(2,3)                  1.3839         estimate D2E/DX2                !
 ! R5    R(2,7)                  1.082          estimate D2E/DX2                !
 ! R6    R(3,4)                  1.3839         estimate D2E/DX2                !
 ! R7    R(3,10)                 1.3377         estimate D2E/DX2                !
 ! R8    R(4,5)                  1.384          estimate D2E/DX2                !
 ! R9    R(4,8)                  1.082          estimate D2E/DX2                !
 ! R10   R(5,6)                  1.3839         estimate D2E/DX2                !
 ! R11   R(5,11)                 1.3377         estimate D2E/DX2                !
 ! R12   R(6,9)                  1.082          estimate D2E/DX2                !
 ! A1    A(2,1,6)              123.2344         estimate D2E/DX2                !
 ! A2    A(2,1,12)             118.3736         estimate D2E/DX2                !
 ! A3    A(6,1,12)             118.392          estimate D2E/DX2                !
 ! A4    A(1,2,3)              116.7728         estimate D2E/DX2                !
 ! A5    A(1,2,7)              121.6097         estimate D2E/DX2                !
 ! A6    A(3,2,7)              121.6174         estimate D2E/DX2                !
 ! A7    A(2,3,4)              123.2244         estimate D2E/DX2                !
 ! A8    A(2,3,10)             118.3878         estimate D2E/DX2                !
 ! A9    A(4,3,10)             118.3878         estimate D2E/DX2                !
 ! A10   A(3,4,5)              116.7728         estimate D2E/DX2                !
 ! A11   A(3,4,8)              121.6174         estimate D2E/DX2                !
 ! A12   A(5,4,8)              121.6097         estimate D2E/DX2                !
 ! A13   A(4,5,6)              123.2344         estimate D2E/DX2                !
 ! A14   A(4,5,11)             118.3736         estimate D2E/DX2                !
 ! A15   A(6,5,11)             118.392          estimate D2E/DX2                !
 ! A16   A(1,6,5)              116.761          estimate D2E/DX2                !
 ! A17   A(1,6,9)              121.6195         estimate D2E/DX2                !
 ! A18   A(5,6,9)              121.6195         estimate D2E/DX2                !
 ! D1    D(6,1,2,3)              0.0            estimate D2E/DX2                !
 ! D2    D(6,1,2,7)            180.0            estimate D2E/DX2                !
 ! D3    D(12,1,2,3)           180.0            estimate D2E/DX2                !
 ! D4    D(12,1,2,7)             0.0            estimate D2E/DX2                !
 ! D5    D(2,1,6,5)              0.0            estimate D2E/DX2                !
 ! D6    D(2,1,6,9)            180.0            estimate D2E/DX2                !
 ! D7    D(12,1,6,5)           180.0            estimate D2E/DX2                !
 ! D8    D(12,1,6,9)             0.0            estimate D2E/DX2                !
 ! D9    D(1,2,3,4)              0.0            estimate D2E/DX2                !
 ! D10   D(1,2,3,10)           180.0            estimate D2E/DX2                !
 ! D11   D(7,2,3,4)            180.0            estimate D2E/DX2                !
 ! D12   D(7,2,3,10)             0.0            estimate D2E/DX2                !
 ! D13   D(2,3,4,5)              0.0            estimate D2E/DX2                !
 ! D14   D(2,3,4,8)            180.0            estimate D2E/DX2                !
 ! D15   D(10,3,4,5)           180.0            estimate D2E/DX2                !
 ! D16   D(10,3,4,8)             0.0            estimate D2E/DX2                !
 ! D17   D(3,4,5,6)              0.0            estimate D2E/DX2                !
 ! D18   D(3,4,5,11)           180.0            estimate D2E/DX2                !
 ! D19   D(8,4,5,6)            180.0            estimate D2E/DX2                !
 ! D20   D(8,4,5,11)             0.0            estimate D2E/DX2                !
 ! D21   D(4,5,6,1)              0.0            estimate D2E/DX2                !
 ! D22   D(4,5,6,9)            180.0            estimate D2E/DX2                !
 ! D23   D(11,5,6,1)           180.0            estimate D2E/DX2                !
 ! D24   D(11,5,6,9)             0.0            estimate D2E/DX2                !
 --------------------------------------------------------------------------------
 Trust Radius=3.00D-01 FncErr=1.00D-07 GrdErr=1.00D-06 EigMax=2.50D+02 EigMin=1.00D-04
 Number of steps in this run=     64 maximum allowed number of steps=    100.
 GradGradGradGradGradGradGradGradGradGradGradGradGradGradGradGradGradGrad

 Leave Link  103 at Thu Jan 30 13:01:51 2025, MaxMem=   104857600 cpu:               0.0 elap:               0.0
 (Enter /sw/cluster/pub/apps//g16/l202.exe)
                          Input orientation:                          
 ---------------------------------------------------------------------
 Center     Atomic      Atomic             Coordinates (Angstroms)
 Number     Number       Type             X           Y           Z
 ---------------------------------------------------------------------
      1          6           0        1.178499    0.680466    0.000000
      2          6           0        1.217502   -0.702950    0.000000
      3          6           0        0.000000   -1.360916    0.000000
      4          6           0       -1.217502   -0.702950    0.000000
      5          6           0       -1.178499    0.680466    0.000000
      6          6           0        0.000000    1.406036    0.000000
      7          1           0        2.154583   -1.243860    0.000000
      8          1           0       -2.154583   -1.243860    0.000000
      9          1           0        0.000000    2.488014    0.000000
     10          9           0        0.000000   -2.698573    0.000000
     11          9           0       -2.337080    1.349064    0.000000
     12          9           0        2.337080    1.349064    0.000000
 ---------------------------------------------------------------------
                    Distance matrix (angstroms):
                    1          2          3          4          5
     1  C    0.000000
     2  C    1.383966   0.000000
     3  C    2.357138   1.383919   0.000000
     4  C    2.766706   2.435005   1.383919   0.000000
     5  C    2.356997   2.766706   2.357138   1.383966   0.000000
     6  C    1.383947   2.435186   2.766951   2.435186   1.383947
     7  H    2.157724   1.081991   2.157761   3.415194   3.848697
     8  H    3.848697   3.415194   2.157761   1.081991   2.157724
     9  H    2.157797   3.415343   3.848930   3.415343   2.157797
    10  F    3.578654   2.337696   1.337657   2.337696   3.578654
    11  F    3.578591   4.104366   3.578538   2.337566   1.337660
    12  F    1.337660   2.337566   3.578538   4.104366   3.578591
                    6          7          8          9         10
     6  C    0.000000
     7  H    3.415286   0.000000
     8  H    3.415286   4.309167   0.000000
     9  H    1.081979   4.309190   4.309190   0.000000
    10  F    4.104608   2.599696   2.599696   5.186587   0.000000
    11  F    2.337774   5.186357   2.599339   2.599837   4.673896
    12  F    2.337774   2.599339   5.186357   2.599837   4.673896
                   11         12
    11  F    0.000000
    12  F    4.674160   0.000000
 Symmetry turned off by external request.
 Stoichiometry    C6H3F3(1-,2)
 Framework group  C2V[C2(HCCF),SGV(C4H2F2)]
 Deg. of freedom    11
 Full point group                 C2V     NOp   4
 Rotational constants (GHZ):           1.7684019           1.7682861           0.8841720
 Leave Link  202 at Thu Jan 30 13:01:51 2025, MaxMem=   104857600 cpu:               0.0 elap:               0.0
 (Enter /sw/cluster/pub/apps//g16/l301.exe)
 Standard basis: 6-311++G(d,p) (5D, 7F)
 Ernie: Thresh=  0.10000D-02 Tol=  0.10000D-05 Strict=F.
   219 basis functions,   351 primitive gaussians,   228 cartesian basis functions
    34 alpha electrons       33 beta electrons
       nuclear repulsion energy       424.5038362727 Hartrees.
 IExCor= 1009 DFT=T Ex+Corr=PBE1PBE ExCW=0 ScaHFX=  0.250000
 ScaDFX=  0.750000  0.750000  1.000000  1.000000 ScalE2=  1.000000  1.000000
 IRadAn=      5 IRanWt=     -1 IRanGd=            0 ICorTp=0 IEmpDi=  4
 NAtoms=   12 NActive=   12 NUniq=   12 SFac= 1.00D+00 NAtFMM=   60 NAOKFM=F Big=F
 Integral buffers will be    131072 words long.
 Raffenetti 2 integral format.
 Two-electron integral symmetry is turned off.
 Leave Link  301 at Thu Jan 30 13:01:51 2025, MaxMem=   104857600 cpu:               0.0 elap:               0.0
 (Enter /sw/cluster/pub/apps//g16/l302.exe)
 NPDir=0 NMtPBC=     1 NCelOv=     1 NCel=       1 NClECP=     1 NCelD=      1
         NCelK=      1 NCelE2=     1 NClLst=     1 CellRange=     0.0.
 One-electron integrals computed using PRISM.
 NBasis=   219 RedAO= T EigKep=  2.72D-06  NBF=   219
 NBsUse=   219 1.00D-06 EigRej= -1.00D+00 NBFU=   219
 Precomputing XC quadrature grid using
 IXCGrd= 4 IRadAn=           5 IRanWt=          -1 IRanGd=           0 AccXCQ= 0.00D+00.
 Generated NRdTot=       0 NPtTot=           0 NUsed=           0 NTot=          32
 NSgBfM=   228   228   228   228   228 MxSgAt=    12 MxSgA2=    12.
 Leave Link  302 at Thu Jan 30 13:01:52 2025, MaxMem=   104857600 cpu:               0.1 elap:               0.1
 (Enter /sw/cluster/pub/apps//g16/l303.exe)
 DipDrv:  MaxL=1.
 Leave Link  303 at Thu Jan 30 13:01:52 2025, MaxMem=   104857600 cpu:               0.0 elap:               0.0
 (Enter /sw/cluster/pub/apps//g16/l401.exe)
 ExpMin= 3.60D-02 ExpMax= 1.14D+04 ExpMxC= 1.72D+03 IAcc=3 IRadAn=         5 AccDes= 0.00D+00
 Harris functional with IExCor= 1009 and IRadAn=       5 diagonalized for initial guess.
 HarFok:  IExCor= 1009 AccDes= 0.00D+00 IRadAn=         5 IDoV= 1 UseB2=F ITyADJ=14
 ICtDFT=  3500011 ScaDFX=  1.000000  1.000000  1.000000  1.000000
 FoFCou: FMM=F IPFlag=           0 FMFlag=      100000 FMFlg1=           0
         NFxFlg=           0 DoJE=T BraDBF=F KetDBF=T FulRan=T
         wScrn=  0.000000 ICntrl=       500 IOpCl=  0 I1Cent=   200000004 NGrid=           0
         NMat0=    1 NMatS0=      1 NMatT0=    0 NMatD0=    1 NMtDS0=    0 NMtDT0=    0
 Symmetry not used in FoFCou.
 Harris En= -529.738787932123    
 JPrj=0 DoOrth=F DoCkMO=F.
 Initial guess <Sx>= 0.0000 <Sy>= 0.0000 <Sz>= 0.5000 <S**2>= 0.7500 S= 0.5000
 Leave Link  401 at Thu Jan 30 13:01:53 2025, MaxMem=   104857600 cpu:               1.3 elap:               1.3
 (Enter /sw/cluster/pub/apps//g16/l502.exe)
 Two-electron integral symmetry not used.
 UHF open shell SCF:
 Using DIIS extrapolation, IDIIS=  1040.
 NGot=   104857600 LenX=   104750604 LenY=   104698179
 Requested convergence on RMS density matrix=1.00D-08 within 128 cycles.
 Requested convergence on MAX density matrix=1.00D-06.
 Requested convergence on             energy=1.00D-06.
 No special actions if energy rises.
 Fock matrices will be formed incrementally for  20 cycles.

 Cycle   1  Pass 1  IDiag  1:
 FoFJK:  IHMeth= 1 ICntrl=       0 DoSepK=F KAlg= 0 I1Cent=           0 FoldK=F
 IRaf= 950000000 NMat=       1 IRICut=       1 DoRegI=T DoRafI=F ISym2E= 0 IDoP0=0 IntGTp=1.
 FoFCou: FMM=F IPFlag=           0 FMFlag=      100000 FMFlg1=           0
         NFxFlg=           0 DoJE=F BraDBF=F KetDBF=F FulRan=T
         wScrn=  0.000000 ICntrl=         0 IOpCl=  1 I1Cent=           0 NGrid=           0
         NMat0=    1 NMatS0=      1 NMatT0=    0 NMatD0=    1 NMtDS0=    0 NMtDT0=    0
 Symmetry not used in FoFCou.
 E= -529.270024795571    
 DIIS: error= 4.20D-02 at cycle   1 NSaved=   1.
 NSaved= 1 IEnMin= 1 EnMin= -529.270024795571     IErMin= 1 ErrMin= 4.20D-02
 ErrMax= 4.20D-02  0.00D+00 EMaxC= 1.00D-01 BMatC= 1.03D+00 BMatP= 1.03D+00
 IDIUse=3 WtCom= 5.80D-01 WtEn= 4.20D-01
 Coeff-Com:  0.100D+01
 Coeff-En:   0.100D+01
 Coeff:      0.100D+01
 Gap=     0.045 Goal=   None    Shift=    0.000
 Gap=     0.258 Goal=   None    Shift=    0.000
 GapD=    0.045 DampG=0.250 DampE=0.500 DampFc=0.2500 IDamp=-1.
 Damping current iteration by 2.50D-01
 RMSDP=1.74D+01 MaxDP=1.29D+03              OVMax= 9.98D-01

 Cycle   2  Pass 1  IDiag  1:
 RMSU=  4.28D+00    CP:  3.00D+00
 E= -529.371605410119     Delta-E=       -0.101580614548 Rises=F Damp=T
 DIIS: error= 2.05D-02 at cycle   2 NSaved=   2.
 NSaved= 2 IEnMin= 2 EnMin= -529.371605410119     IErMin= 2 ErrMin= 2.05D-02
 ErrMax= 2.05D-02  0.00D+00 EMaxC= 1.00D-01 BMatC= 2.53D-01 BMatP= 1.03D+00
 IDIUse=3 WtCom= 7.95D-01 WtEn= 2.05D-01
 Coeff-Com: -0.743D+00 0.174D+01
 Coeff-En:   0.000D+00 0.100D+01
 Coeff:     -0.591D+00 0.159D+01
 Gap=     0.010 Goal=   None    Shift=    0.000
 Gap=     0.196 Goal=   None    Shift=    0.000
 RMSDP=8.97D+00 MaxDP=7.73D+02 DE=-1.02D-01 OVMax= 1.68D-01

 Cycle   3  Pass 1  IDiag  1:
 RMSU=  1.06D+00    CP:  3.00D+00  3.00D+00
 E= -529.514254530626     Delta-E=       -0.142649120507 Rises=F Damp=F
 DIIS: error= 1.06D-02 at cycle   3 NSaved=   3.
 NSaved= 3 IEnMin= 3 EnMin= -529.514254530626     IErMin= 3 ErrMin= 1.06D-02
 ErrMax= 1.06D-02  0.00D+00 EMaxC= 1.00D-01 BMatC= 6.25D-02 BMatP= 2.53D-01
 IDIUse=3 WtCom= 8.94D-01 WtEn= 1.06D-01
 Coeff-Com: -0.111D+00 0.488D+00 0.623D+00
 Coeff-En:   0.000D+00 0.000D+00 0.100D+01
 Coeff:     -0.992D-01 0.436D+00 0.663D+00
 Gap=     0.021 Goal=   None    Shift=    0.000
 Gap=     0.254 Goal=   None    Shift=    0.000
 RMSDP=1.33D+00 MaxDP=1.77D+02 DE=-1.43D-01 OVMax= 1.12D-01

 Cycle   4  Pass 1  IDiag  1:
 RMSU=  4.22D-01    CP:  3.00D+00  2.88D+00  9.46D-02
 E= -529.528143426598     Delta-E=       -0.013888895972 Rises=F Damp=F
 DIIS: error= 5.05D-03 at cycle   4 NSaved=   4.
 NSaved= 4 IEnMin= 4 EnMin= -529.528143426598     IErMin= 4 ErrMin= 5.05D-03
 ErrMax= 5.05D-03  0.00D+00 EMaxC= 1.00D-01 BMatC= 1.22D-02 BMatP= 6.25D-02
 IDIUse=3 WtCom= 9.50D-01 WtEn= 5.05D-02
 Coeff-Com:  0.133D+00-0.150D+00 0.336D+00 0.681D+00
 Coeff-En:   0.000D+00 0.000D+00 0.000D+00 0.100D+01
 Coeff:      0.126D+00-0.143D+00 0.319D+00 0.697D+00
 Gap=     0.024 Goal=   None    Shift=    0.000
 Gap=     0.262 Goal=   None    Shift=    0.000
 RMSDP=1.01D+00 MaxDP=1.32D+02 DE=-1.39D-02 OVMax= 8.90D-02

 Cycle   5  Pass 1  IDiag  1:
 RMSU=  2.66D-01    CP:  3.00D+00  2.71D+00 -4.87D-01  1.70D+00
 E= -529.530631534383     Delta-E=       -0.002488107785 Rises=F Damp=F
 DIIS: error= 2.25D-03 at cycle   5 NSaved=   5.
 NSaved= 5 IEnMin= 5 EnMin= -529.530631534383     IErMin= 5 ErrMin= 2.25D-03
 ErrMax= 2.25D-03  0.00D+00 EMaxC= 1.00D-01 BMatC= 9.06D-04 BMatP= 1.22D-02
 IDIUse=3 WtCom= 9.78D-01 WtEn= 2.25D-02
 Coeff-Com:  0.214D-01-0.232D-01 0.562D-01 0.240D+00 0.706D+00
 Coeff-En:   0.000D+00 0.000D+00 0.000D+00 0.000D+00 0.100D+01
 Coeff:      0.209D-01-0.227D-01 0.550D-01 0.234D+00 0.712D+00
 Gap=     0.033 Goal=   None    Shift=    0.000
 Gap=     0.258 Goal=   None    Shift=    0.000
 RMSDP=2.98D-01 MaxDP=3.26D+01 DE=-2.49D-03 OVMax= 1.80D-02

 Cycle   6  Pass 1  IDiag  1:
 RMSU=  4.70D-02    CP:  3.00D+00  2.65D+00 -5.80D-01  1.76D+00  1.20D+00
 E= -529.530932449216     Delta-E=       -0.000300914833 Rises=F Damp=F
 DIIS: error= 1.17D-03 at cycle   6 NSaved=   6.
 NSaved= 6 IEnMin= 6 EnMin= -529.530932449216     IErMin= 6 ErrMin= 1.17D-03
 ErrMax= 1.17D-03  0.00D+00 EMaxC= 1.00D-01 BMatC= 2.92D-04 BMatP= 9.06D-04
 IDIUse=3 WtCom= 9.88D-01 WtEn= 1.17D-02
 Coeff-Com: -0.274D-02 0.571D-02 0.163D-02 0.552D-01 0.392D+00 0.549D+00
 Coeff-En:   0.000D+00 0.000D+00 0.000D+00 0.000D+00 0.000D+00 0.100D+01
 Coeff:     -0.271D-02 0.564D-02 0.161D-02 0.546D-01 0.387D+00 0.554D+00
 Gap=     0.027 Goal=   None    Shift=    0.000
 Gap=     0.258 Goal=   None    Shift=    0.000
 RMSDP=2.21D-01 MaxDP=2.50D+01 DE=-3.01D-04 OVMax= 3.28D-02

 Cycle   7  Pass 1  IDiag  1:
 RMSU=  1.29D-02    CP:  3.00D+00  2.64D+00 -7.49D-01  1.94D+00  1.53D+00
                    CP:  1.79D+00
 E= -529.531102179963     Delta-E=       -0.000169730748 Rises=F Damp=F
 DIIS: error= 6.90D-04 at cycle   7 NSaved=   7.
 NSaved= 7 IEnMin= 7 EnMin= -529.531102179963     IErMin= 7 ErrMin= 6.90D-04
 ErrMax= 6.90D-04  0.00D+00 EMaxC= 1.00D-01 BMatC= 6.68D-05 BMatP= 2.92D-04
 IDIUse=3 WtCom= 9.93D-01 WtEn= 6.90D-03
 Coeff-Com: -0.504D-02 0.665D-02-0.895D-02-0.404D-01-0.389D-01 0.287D+00
 Coeff-Com:  0.800D+00
 Coeff-En:   0.000D+00 0.000D+00 0.000D+00 0.000D+00 0.000D+00 0.000D+00
 Coeff-En:   0.100D+01
 Coeff:     -0.500D-02 0.660D-02-0.889D-02-0.401D-01-0.386D-01 0.285D+00
 Coeff:      0.801D+00
 Gap=     0.027 Goal=   None    Shift=    0.000
 Gap=     0.258 Goal=   None    Shift=    0.000
 RMSDP=2.61D-01 MaxDP=3.05D+01 DE=-1.70D-04 OVMax= 3.91D-02

 Cycle   8  Pass 1  IDiag  1:
 RMSU=  4.24D-03    CP:  3.00D+00  2.62D+00 -9.40D-01  2.13D+00  1.91D+00
                    CP:  2.91D+00  2.59D+00
 E= -529.531233813311     Delta-E=       -0.000131633348 Rises=F Damp=F
 DIIS: error= 2.85D-04 at cycle   8 NSaved=   8.
 NSaved= 8 IEnMin= 8 EnMin= -529.531233813311     IErMin= 8 ErrMin= 2.85D-04
 ErrMax= 2.85D-04  0.00D+00 EMaxC= 1.00D-01 BMatC= 2.27D-05 BMatP= 6.68D-05
 IDIUse=3 WtCom= 9.97D-01 WtEn= 2.85D-03
 Coeff-Com: -0.122D-03 0.116D-02 0.823D-04-0.288D-01-0.151D+00 0.126D-01
 Coeff-Com:  0.303D+00 0.863D+00
 Coeff-En:   0.000D+00 0.000D+00 0.000D+00 0.000D+00 0.000D+00 0.000D+00
 Coeff-En:   0.000D+00 0.100D+01
 Coeff:     -0.122D-03 0.116D-02 0.821D-04-0.287D-01-0.151D+00 0.125D-01
 Coeff:      0.302D+00 0.864D+00
 Gap=     0.027 Goal=   None    Shift=    0.000
 Gap=     0.259 Goal=   None    Shift=    0.000
 RMSDP=2.49D-01 MaxDP=2.69D+01 DE=-1.32D-04 OVMax= 4.08D-02

 Cycle   9  Pass 1  IDiag  1:
 RMSU=  5.29D-02    CP:  3.00D+00  2.61D+00 -1.13D+00  2.31D+00  2.29D+00
                    CP:  3.00D+00  3.00D+00  2.50D+00
 E= -529.531327401607     Delta-E=       -0.000093588296 Rises=F Damp=F
 DIIS: error= 2.74D-04 at cycle   9 NSaved=   9.
 NSaved= 9 IEnMin= 9 EnMin= -529.531327401607     IErMin= 9 ErrMin= 2.74D-04
 ErrMax= 2.74D-04  0.00D+00 EMaxC= 1.00D-01 BMatC= 1.30D-05 BMatP= 2.27D-05
 IDIUse=3 WtCom= 9.97D-01 WtEn= 2.74D-03
 Coeff-Com:  0.222D-02-0.233D-02 0.441D-02-0.272D-02-0.921D-01-0.437D-01
 Coeff-Com: -0.106D+00 0.347D+00 0.893D+00
 Coeff-En:   0.000D+00 0.000D+00 0.000D+00 0.000D+00 0.000D+00 0.000D+00
 Coeff-En:   0.000D+00 0.000D+00 0.100D+01
 Coeff:      0.222D-02-0.232D-02 0.440D-02-0.271D-02-0.918D-01-0.436D-01
 Coeff:     -0.106D+00 0.346D+00 0.894D+00
 Gap=     0.027 Goal=   None    Shift=    0.000
 Gap=     0.259 Goal=   None    Shift=    0.000
 RMSDP=2.05D-01 MaxDP=2.20D+01 DE=-9.36D-05 OVMax= 3.58D-02

 Cycle  10  Pass 1  IDiag  1:
 RMSU=  6.95D-03    CP:  3.00D+00  2.60D+00 -1.29D+00  2.43D+00  2.60D+00
                    CP:  3.00D+00  3.00D+00  3.00D+00  2.01D+00
 E= -529.531385305026     Delta-E=       -0.000057903418 Rises=F Damp=F
 DIIS: error= 1.46D-04 at cycle  10 NSaved=  10.
 NSaved=10 IEnMin=10 EnMin= -529.531385305026     IErMin=10 ErrMin= 1.46D-04
 ErrMax= 1.46D-04  0.00D+00 EMaxC= 1.00D-01 BMatC= 5.33D-06 BMatP= 1.30D-05
 IDIUse=3 WtCom= 9.99D-01 WtEn= 1.46D-03
 Coeff-Com:  0.693D-03-0.173D-02 0.148D-02 0.761D-02 0.450D-01 0.884D-01
 Coeff-Com:  0.493D-01-0.727D+00-0.383D+00 0.192D+01
 Coeff-En:   0.000D+00 0.000D+00 0.000D+00 0.000D+00 0.000D+00 0.000D+00
 Coeff-En:   0.000D+00 0.000D+00 0.000D+00 0.100D+01
 Coeff:      0.692D-03-0.173D-02 0.148D-02 0.760D-02 0.450D-01 0.883D-01
 Coeff:      0.492D-01-0.726D+00-0.382D+00 0.192D+01
 Gap=     0.028 Goal=   None    Shift=    0.000
 Gap=     0.259 Goal=   None    Shift=    0.000
 RMSDP=2.25D-01 MaxDP=2.41D+01 DE=-5.79D-05 OVMax= 4.34D-02

 Cycle  11  Pass 1  IDiag  1:
 RMSU=  1.37D-02    CP:  3.00D+00  2.58D+00 -1.46D+00  2.54D+00  2.95D+00
                    CP:  3.00D+00  3.00D+00  3.00D+00  3.00D+00  2.87D+00
 E= -529.531415637564     Delta-E=       -0.000030332539 Rises=F Damp=F
 DIIS: error= 2.80D-05 at cycle  11 NSaved=  11.
 NSaved=11 IEnMin=11 EnMin= -529.531415637564     IErMin=11 ErrMin= 2.80D-05
 ErrMax= 2.80D-05  0.00D+00 EMaxC= 1.00D-01 BMatC= 5.43D-07 BMatP= 5.33D-06
 IDIUse=1 WtCom= 1.00D+00 WtEn= 0.00D+00
 Coeff-Com: -0.236D-03 0.486D-03 0.101D-02 0.269D-04 0.891D-02 0.272D-01
 Coeff-Com:  0.629D-01-0.166D+00-0.201D+00 0.415D+00 0.852D+00
 Coeff:     -0.236D-03 0.486D-03 0.101D-02 0.269D-04 0.891D-02 0.272D-01
 Coeff:      0.629D-01-0.166D+00-0.201D+00 0.415D+00 0.852D+00
 Gap=     0.028 Goal=   None    Shift=    0.000
 Gap=     0.259 Goal=   None    Shift=    0.000
 RMSDP=8.13D-03 MaxDP=6.24D-01 DE=-3.03D-05 OVMax= 1.42D-03

 Cycle  12  Pass 1  IDiag  1:
 RMSU=  1.79D-03    CP:  3.00D+00  2.58D+00 -1.46D+00  2.53D+00  2.95D+00
                    CP:  3.00D+00  3.00D+00  3.00D+00  3.00D+00  2.93D+00
                    CP:  1.13D+00
 E= -529.531415944968     Delta-E=       -0.000000307404 Rises=F Damp=F
 DIIS: error= 2.34D-05 at cycle  12 NSaved=  12.
 NSaved=12 IEnMin=12 EnMin= -529.531415944968     IErMin=12 ErrMin= 2.34D-05
 ErrMax= 2.34D-05  0.00D+00 EMaxC= 1.00D-01 BMatC= 3.08D-07 BMatP= 5.43D-07
 IDIUse=1 WtCom= 1.00D+00 WtEn= 0.00D+00
 Coeff-Com: -0.134D-03 0.256D-03 0.278D-03-0.120D-02-0.293D-02 0.139D-02
 Coeff-Com:  0.255D-01 0.189D-01-0.514D-01-0.686D-01 0.483D+00 0.595D+00
 Coeff:     -0.134D-03 0.256D-03 0.278D-03-0.120D-02-0.293D-02 0.139D-02
 Coeff:      0.255D-01 0.189D-01-0.514D-01-0.686D-01 0.483D+00 0.595D+00
 Gap=     0.028 Goal=   None    Shift=    0.000
 Gap=     0.259 Goal=   None    Shift=    0.000
 RMSDP=5.62D-03 MaxDP=6.23D-01 DE=-3.07D-07 OVMax= 1.47D-03

 Cycle  13  Pass 1  IDiag  1:
 RMSU=  7.99D-04    CP:  3.00D+00  2.58D+00 -1.46D+00  2.53D+00  2.96D+00
                    CP:  3.00D+00  3.00D+00  3.00D+00  3.00D+00  3.00D+00
                    CP:  1.23D+00  9.53D-01
 E= -529.531416106561     Delta-E=       -0.000000161593 Rises=F Damp=F
 DIIS: error= 1.02D-05 at cycle  13 NSaved=  13.
 NSaved=13 IEnMin=13 EnMin= -529.531416106561     IErMin=13 ErrMin= 1.02D-05
 ErrMax= 1.02D-05  0.00D+00 EMaxC= 1.00D-01 BMatC= 1.87D-08 BMatP= 3.08D-07
 IDIUse=1 WtCom= 1.00D+00 WtEn= 0.00D+00
 Coeff-Com: -0.237D-04 0.174D-04-0.772D-04 0.116D-03 0.723D-03 0.818D-03
 Coeff-Com: -0.299D-02 0.400D-03-0.103D-01-0.278D-01 0.307D-01 0.140D+00
 Coeff-Com:  0.868D+00
 Coeff:     -0.237D-04 0.174D-04-0.772D-04 0.116D-03 0.723D-03 0.818D-03
 Coeff:     -0.299D-02 0.400D-03-0.103D-01-0.278D-01 0.307D-01 0.140D+00
 Coeff:      0.868D+00
 Gap=     0.028 Goal=   None    Shift=    0.000
 Gap=     0.259 Goal=   None    Shift=    0.000
 RMSDP=9.30D-03 MaxDP=1.00D+00 DE=-1.62D-07 OVMax= 1.95D-03

 Cycle  14  Pass 1  IDiag  1:
 RMSU=  5.88D-04    CP:  3.00D+00  2.58D+00 -1.47D+00  2.54D+00  2.97D+00
                    CP:  3.00D+00  3.00D+00  3.00D+00  3.00D+00  3.00D+00
                    CP:  1.39D+00  6.12D-01  2.65D+00
 E= -529.531416154965     Delta-E=       -0.000000048404 Rises=F Damp=F
 DIIS: error= 3.03D-06 at cycle  14 NSaved=  14.
 NSaved=14 IEnMin=14 EnMin= -529.531416154965     IErMin=14 ErrMin= 3.03D-06
 ErrMax= 3.03D-06  0.00D+00 EMaxC= 1.00D-01 BMatC= 3.76D-09 BMatP= 1.87D-08
 IDIUse=1 WtCom= 1.00D+00 WtEn= 0.00D+00
 Coeff-Com: -0.484D-05 0.112D-04-0.437D-04 0.879D-04 0.165D-03 0.165D-03
 Coeff-Com: -0.245D-02 0.124D-02-0.658D-03-0.126D-01-0.277D-01 0.112D-01
 Coeff-Com:  0.416D+00 0.615D+00
 Coeff:     -0.484D-05 0.112D-04-0.437D-04 0.879D-04 0.165D-03 0.165D-03
 Coeff:     -0.245D-02 0.124D-02-0.658D-03-0.126D-01-0.277D-01 0.112D-01
 Coeff:      0.416D+00 0.615D+00
 Gap=     0.028 Goal=   None    Shift=    0.000
 Gap=     0.259 Goal=   None    Shift=    0.000
 RMSDP=1.09D-03 MaxDP=1.04D-01 DE=-4.84D-08 OVMax= 6.32D-05

 Cycle  15  Pass 1  IDiag  1:
 RMSU=  3.95D-05    CP:  3.00D+00  2.58D+00 -1.47D+00  2.53D+00  2.97D+00
                    CP:  3.00D+00  3.00D+00  3.00D+00  3.00D+00  3.00D+00
                    CP:  1.39D+00  6.81D-01  2.72D+00  1.10D+00
 E= -529.531416156629     Delta-E=       -0.000000001664 Rises=F Damp=F
 DIIS: error= 1.49D-06 at cycle  15 NSaved=  15.
 NSaved=15 IEnMin=15 EnMin= -529.531416156629     IErMin=15 ErrMin= 1.49D-06
 ErrMax= 1.49D-06  0.00D+00 EMaxC= 1.00D-01 BMatC= 6.24D-10 BMatP= 3.76D-09
 IDIUse=1 WtCom= 1.00D+00 WtEn= 0.00D+00
 Coeff-Com:  0.834D-05-0.113D-04-0.151D-04 0.203D-04-0.238D-04-0.384D-03
 Coeff-Com: -0.736D-03 0.453D-03 0.496D-02 0.139D-02-0.269D-01-0.392D-01
 Coeff-Com: -0.220D-01 0.225D+00 0.857D+00
 Coeff:      0.834D-05-0.113D-04-0.151D-04 0.203D-04-0.238D-04-0.384D-03
 Coeff:     -0.736D-03 0.453D-03 0.496D-02 0.139D-02-0.269D-01-0.392D-01
 Coeff:     -0.220D-01 0.225D+00 0.857D+00
 Gap=     0.028 Goal=   None    Shift=    0.000
 Gap=     0.259 Goal=   None    Shift=    0.000
 RMSDP=1.62D-03 MaxDP=1.76D-01 DE=-1.66D-09 OVMax= 1.44D-04

 Cycle  16  Pass 1  IDiag  1:
 RMSU=  5.84D-06    CP:  3.00D+00  2.58D+00 -1.47D+00  2.53D+00  2.97D+00
                    CP:  3.00D+00  3.00D+00  3.00D+00  3.00D+00  3.00D+00
                    CP:  1.37D+00  7.64D-01  2.67D+00  1.14D+00  2.25D+00
 E= -529.531416157689     Delta-E=       -0.000000001060 Rises=F Damp=F
 DIIS: error= 1.20D-06 at cycle  16 NSaved=  16.
 NSaved=16 IEnMin=16 EnMin= -529.531416157689     IErMin=16 ErrMin= 1.20D-06
 ErrMax= 1.20D-06  0.00D+00 EMaxC= 1.00D-01 BMatC= 1.76D-10 BMatP= 6.24D-10
 IDIUse=1 WtCom= 1.00D+00 WtEn= 0.00D+00
 Coeff-Com:  0.639D-05-0.129D-04 0.703D-05 0.974D-04 0.338D-03-0.130D-03
 Coeff-Com: -0.134D-02-0.246D-02 0.208D-02 0.614D-02-0.585D-02-0.242D-02
 Coeff-Com:  0.196D-01-0.122D+00-0.207D+00 0.131D+01
 Coeff:      0.639D-05-0.129D-04 0.703D-05 0.974D-04 0.338D-03-0.130D-03
 Coeff:     -0.134D-02-0.246D-02 0.208D-02 0.614D-02-0.585D-02-0.242D-02
 Coeff:      0.196D-01-0.122D+00-0.207D+00 0.131D+01
 Gap=     0.028 Goal=   None    Shift=    0.000
 Gap=     0.259 Goal=   None    Shift=    0.000
 RMSDP=9.24D-04 MaxDP=7.62D-02 DE=-1.06D-09 OVMax= 5.57D-05

 Cycle  17  Pass 1  IDiag  1:
 RMSU=  4.03D-06    CP:  3.00D+00  2.58D+00 -1.47D+00  2.53D+00  2.97D+00
                    CP:  3.00D+00  3.00D+00  3.00D+00  3.00D+00  3.00D+00
                    CP:  1.36D+00  7.80D-01  2.66D+00  1.17D+00  3.00D+00
                    CP:  3.00D+00
 E= -529.531416158216     Delta-E=       -0.000000000526 Rises=F Damp=F
 DIIS: error= 5.09D-07 at cycle  17 NSaved=  17.
 NSaved=17 IEnMin=17 EnMin= -529.531416158216     IErMin=17 ErrMin= 5.09D-07
 ErrMax= 5.09D-07  0.00D+00 EMaxC= 1.00D-01 BMatC= 3.55D-11 BMatP= 1.76D-10
 IDIUse=1 WtCom= 1.00D+00 WtEn= 0.00D+00
 Coeff-Com: -0.424D-05 0.491D-05 0.914D-06 0.767D-05 0.743D-04 0.107D-03
 Coeff-Com: -0.485D-04-0.352D-03-0.106D-02 0.229D-03 0.321D-02 0.556D-02
 Coeff-Com: -0.452D-02-0.602D-01-0.199D+00 0.240D+00 0.102D+01
 Coeff:     -0.424D-05 0.491D-05 0.914D-06 0.767D-05 0.743D-04 0.107D-03
 Coeff:     -0.485D-04-0.352D-03-0.106D-02 0.229D-03 0.321D-02 0.556D-02
 Coeff:     -0.452D-02-0.602D-01-0.199D+00 0.240D+00 0.102D+01
 Gap=     0.028 Goal=   None    Shift=    0.000
 Gap=     0.259 Goal=   None    Shift=    0.000
 RMSDP=4.49D-04 MaxDP=3.46D-02 DE=-5.26D-10 OVMax= 1.40D-05

 Cycle  18  Pass 1  IDiag  1:
 RMSU=  1.32D-05    CP:  3.00D+00  2.58D+00 -1.47D+00  2.53D+00  2.97D+00
                    CP:  3.00D+00  3.00D+00  3.00D+00  3.00D+00  3.00D+00
                    CP:  1.36D+00  7.98D-01  2.65D+00  1.19D+00  3.00D+00
                    CP:  3.00D+00  1.73D+00
 E= -529.531416158030     Delta-E=        0.000000000186 Rises=F Damp=F
 DIIS: error= 3.80D-07 at cycle  18 NSaved=  18.
 NSaved=18 IEnMin=17 EnMin= -529.531416158216     IErMin=18 ErrMin= 3.80D-07
 ErrMax= 3.80D-07  0.00D+00 EMaxC= 1.00D-01 BMatC= 2.58D-11 BMatP= 3.55D-11
 IDIUse=1 WtCom= 1.00D+00 WtEn= 0.00D+00
 Coeff-Com:  0.110D-05-0.167D-05-0.193D-06-0.341D-05-0.421D-04-0.239D-04
 Coeff-Com: -0.315D-04 0.352D-03-0.780D-04-0.726D-03 0.320D-03 0.270D-02
 Coeff-Com:  0.152D-01 0.860D-02-0.369D-01-0.355D+00 0.182D+00 0.118D+01
 Coeff:      0.110D-05-0.167D-05-0.193D-06-0.341D-05-0.421D-04-0.239D-04
 Coeff:     -0.315D-04 0.352D-03-0.780D-04-0.726D-03 0.320D-03 0.270D-02
 Coeff:      0.152D-01 0.860D-02-0.369D-01-0.355D+00 0.182D+00 0.118D+01
 Gap=     0.028 Goal=   None    Shift=    0.000
 Gap=     0.259 Goal=   None    Shift=    0.000
 RMSDP=3.22D-04 MaxDP=3.64D-02 DE= 1.86D-10 OVMax= 5.16D-05

 Cycle  19  Pass 1  IDiag  1:
 RMSU=  1.60D-06    CP:  3.00D+00  2.58D+00 -1.47D+00  2.53D+00  2.97D+00
                    CP:  3.00D+00  3.00D+00  3.00D+00  3.00D+00  3.00D+00
                    CP:  1.36D+00  8.10D-01  2.61D+00  1.17D+00  3.00D+00
                    CP:  3.00D+00  2.17D+00  1.38D+00
 E= -529.531416158255     Delta-E=       -0.000000000225 Rises=F Damp=F
 DIIS: error= 7.66D-08 at cycle  19 NSaved=  19.
 NSaved=19 IEnMin=19 EnMin= -529.531416158255     IErMin=19 ErrMin= 7.66D-08
 ErrMax= 7.66D-08  0.00D+00 EMaxC= 1.00D-01 BMatC= 9.12D-13 BMatP= 2.58D-11
 IDIUse=1 WtCom= 1.00D+00 WtEn= 0.00D+00
 Coeff-Com:  0.596D-06-0.967D-06-0.806D-06 0.120D-05 0.463D-05-0.212D-04
 Coeff-Com: -0.423D-05-0.553D-04 0.187D-03 0.995D-04-0.109D-02-0.182D-02
 Coeff-Com:  0.229D-03 0.822D-02 0.354D-01 0.179D-02-0.121D+00-0.260D+00
 Coeff-Com:  0.134D+01
 Coeff:      0.596D-06-0.967D-06-0.806D-06 0.120D-05 0.463D-05-0.212D-04
 Coeff:     -0.423D-05-0.553D-04 0.187D-03 0.995D-04-0.109D-02-0.182D-02
 Coeff:      0.229D-03 0.822D-02 0.354D-01 0.179D-02-0.121D+00-0.260D+00
 Coeff:      0.134D+01
 Gap=     0.028 Goal=   None    Shift=    0.000
 Gap=     0.259 Goal=   None    Shift=    0.000
 RMSDP=1.11D-04 MaxDP=7.73D-03 DE=-2.25D-10 OVMax= 1.01D-05

 Cycle  20  Pass 1  IDiag  1:
 RMSU=  9.98D-07    CP:  3.00D+00  2.58D+00 -1.47D+00  2.53D+00  2.97D+00
                    CP:  3.00D+00  3.00D+00  3.00D+00  3.00D+00  3.00D+00
                    CP:  1.36D+00  8.11D-01  2.60D+00  1.16D+00  3.00D+00
                    CP:  3.00D+00  1.93D+00  1.05D+00  6.83D-01
 E= -529.531416158174     Delta-E=        0.000000000081 Rises=F Damp=F
 DIIS: error= 7.61D-09 at cycle  20 NSaved=  20.
 NSaved=20 IEnMin=19 EnMin= -529.531416158255     IErMin=20 ErrMin= 7.61D-09
 ErrMax= 7.61D-09  0.00D+00 EMaxC= 1.00D-01 BMatC= 2.90D-14 BMatP= 9.12D-13
 IDIUse=1 WtCom= 1.00D+00 WtEn= 0.00D+00
 Coeff-Com: -0.192D-06 0.310D-06 0.787D-07-0.328D-06-0.105D-07 0.379D-05
 Coeff-Com:  0.576D-05 0.340D-05-0.247D-04 0.948D-05 0.496D-04-0.103D-04
 Coeff-Com: -0.987D-03-0.859D-03 0.519D-03 0.192D-01 0.112D-02-0.571D-01
 Coeff-Com: -0.101D+00 0.114D+01
 Coeff:     -0.192D-06 0.310D-06 0.787D-07-0.328D-06-0.105D-07 0.379D-05
 Coeff:      0.576D-05 0.340D-05-0.247D-04 0.948D-05 0.496D-04-0.103D-04
 Coeff:     -0.987D-03-0.859D-03 0.519D-03 0.192D-01 0.112D-02-0.571D-01
 Coeff:     -0.101D+00 0.114D+01
 Gap=     0.028 Goal=   None    Shift=    0.000
 Gap=     0.259 Goal=   None    Shift=    0.000
 RMSDP=6.05D-05 MaxDP=3.64D-03 DE= 8.09D-11 OVMax= 1.84D-06

 Cycle  21  Pass 1  IDiag  1:
 Restarting incremental Fock formation.
 E= -529.531416158509     Delta-E=       -0.000000000335 Rises=F Damp=F
 DIIS: error= 4.35D-09 at cycle  21 NSaved=  20.
 NSaved=20 IEnMin=20 EnMin= -529.531416158509     IErMin=20 ErrMin= 4.35D-09
 ErrMax= 4.35D-09  0.00D+00 EMaxC= 1.00D-01 BMatC= 6.45D-15 BMatP= 2.90D-14
 IDIUse=1 WtCom= 1.00D+00 WtEn= 0.00D+00
 Coeff-Com: -0.748D-08 0.797D-07-0.932D-08-0.982D-07 0.186D-05-0.687D-06
 Coeff-Com:  0.105D-05-0.134D-04-0.268D-05 0.756D-04 0.136D-03-0.826D-04
 Coeff-Com: -0.602D-03-0.290D-02-0.548D-03 0.144D-01 0.127D-01-0.109D+00
 Coeff-Com:  0.464D-01 0.104D+01
 Coeff:     -0.748D-08 0.797D-07-0.932D-08-0.982D-07 0.186D-05-0.687D-06
 Coeff:      0.105D-05-0.134D-04-0.268D-05 0.756D-04 0.136D-03-0.826D-04
 Coeff:     -0.602D-03-0.290D-02-0.548D-03 0.144D-01 0.127D-01-0.109D+00
 Coeff:      0.464D-01 0.104D+01
 Gap=     0.028 Goal=   None    Shift=    0.000
 Gap=     0.259 Goal=   None    Shift=    0.000
 RMSDP=1.50D-05 MaxDP=1.01D-03 DE=-3.35D-10 OVMax= 3.46D-07

 Cycle  22  Pass 1  IDiag  1:
 RMSU=  2.74D-06    CP:  1.00D+00
 E= -529.531416158614     Delta-E=       -0.000000000105 Rises=F Damp=F
 DIIS: error= 2.04D-09 at cycle  22 NSaved=  20.
 NSaved=20 IEnMin=20 EnMin= -529.531416158614     IErMin=20 ErrMin= 2.04D-09
 ErrMax= 2.04D-09  0.00D+00 EMaxC= 1.00D-01 BMatC= 1.26D-15 BMatP= 6.45D-15
 IDIUse=1 WtCom= 1.00D+00 WtEn= 0.00D+00
 Large coefficients: NSaved= 20 BigCof=    0.00 CofMax=   10.00 Det=-3.02D-15
 Inversion failed.  Reducing to 19 matrices.
 Large coefficients: NSaved= 19 BigCof=    0.00 CofMax=   10.00 Det=-3.07D-15
 Inversion failed.  Reducing to 18 matrices.
 Large coefficients: NSaved= 18 BigCof=    0.00 CofMax=   10.00 Det=-3.08D-15
 Inversion failed.  Reducing to 17 matrices.
 Large coefficients: NSaved= 17 BigCof=    0.00 CofMax=   10.00 Det=-3.09D-15
 Inversion failed.  Reducing to 16 matrices.
 Large coefficients: NSaved= 16 BigCof=    0.00 CofMax=   10.00 Det=-3.18D-15
 Inversion failed.  Reducing to 15 matrices.
 Coeff-Com:  0.472D-06-0.789D-06-0.293D-05 0.117D-04 0.231D-04-0.104D-04
 Coeff-Com: -0.664D-04-0.477D-03-0.121D-02 0.384D-02 0.385D-02-0.195D-01
 Coeff-Com: -0.607D-01 0.372D+00 0.702D+00
 Coeff:      0.472D-06-0.789D-06-0.293D-05 0.117D-04 0.231D-04-0.104D-04
 Coeff:     -0.664D-04-0.477D-03-0.121D-02 0.384D-02 0.385D-02-0.195D-01
 Coeff:     -0.607D-01 0.372D+00 0.702D+00
 Gap=     0.028 Goal=   None    Shift=    0.000
 Gap=     0.259 Goal=   None    Shift=    0.000
 RMSDP=2.91D-06 MaxDP=1.88D-04 DE=-1.05D-10 OVMax= 7.75D-08

 Cycle  23  Pass 1  IDiag  1:
 RMSU=  2.91D-07    CP:  1.00D+00  1.22D+00
 E= -529.531416158703     Delta-E=       -0.000000000088 Rises=F Damp=F
 DIIS: error= 1.82D-09 at cycle  23 NSaved=  16.
 NSaved=16 IEnMin=16 EnMin= -529.531416158703     IErMin=16 ErrMin= 1.82D-09
 ErrMax= 1.82D-09  0.00D+00 EMaxC= 1.00D-01 BMatC= 1.15D-15 BMatP= 1.26D-15
 IDIUse=1 WtCom= 1.00D+00 WtEn= 0.00D+00
 Large coefficients: NSaved= 16 BigCof=    0.00 CofMax=   10.00 Det=-1.85D-15
 Inversion failed.  Reducing to 15 matrices.
 Coeff-Com: -0.160D-06-0.741D-06 0.273D-05 0.883D-05 0.390D-04-0.135D-04
 Coeff-Com: -0.149D-03-0.101D-02 0.660D-03 0.372D-02-0.193D-02-0.462D-01
 Coeff-Com: -0.380D-01 0.532D+00 0.551D+00
 Coeff:     -0.160D-06-0.741D-06 0.273D-05 0.883D-05 0.390D-04-0.135D-04
 Coeff:     -0.149D-03-0.101D-02 0.660D-03 0.372D-02-0.193D-02-0.462D-01
 Coeff:     -0.380D-01 0.532D+00 0.551D+00
 Gap=     0.028 Goal=   None    Shift=    0.000
 Gap=     0.259 Goal=   None    Shift=    0.000
 RMSDP=2.61D-06 MaxDP=1.72D-04 DE=-8.84D-11 OVMax= 5.97D-08

 Cycle  24  Pass 1  IDiag  1:
 RMSU=  8.08D-08    CP:  1.00D+00  1.37D+00  9.06D-01
 E= -529.531416158595     Delta-E=        0.000000000108 Rises=F Damp=F
 DIIS: error= 3.20D-10 at cycle  24 NSaved=  16.
 NSaved=16 IEnMin=15 EnMin= -529.531416158703     IErMin=16 ErrMin= 3.20D-10
 ErrMax= 3.20D-10  0.00D+00 EMaxC= 1.00D-01 BMatC= 4.91D-17 BMatP= 1.15D-15
 IDIUse=1 WtCom= 1.00D+00 WtEn= 0.00D+00
 Large coefficients: NSaved= 16 BigCof=    0.00 CofMax=   10.00 Det=-4.19D-16
 Inversion failed.  Reducing to 15 matrices.
 Coeff-Com: -0.360D-06-0.157D-05-0.720D-06 0.205D-04 0.149D-04 0.272D-04
 Coeff-Com: -0.317D-03-0.153D-03 0.625D-03 0.324D-02-0.163D-01-0.576D-01
 Coeff-Com:  0.204D+00 0.234D+00 0.633D+00
 Coeff:     -0.360D-06-0.157D-05-0.720D-06 0.205D-04 0.149D-04 0.272D-04
 Coeff:     -0.317D-03-0.153D-03 0.625D-03 0.324D-02-0.163D-01-0.576D-01
 Coeff:      0.204D+00 0.234D+00 0.633D+00
 Gap=     0.028 Goal=   None    Shift=    0.000
 Gap=     0.259 Goal=   None    Shift=    0.000
 RMSDP=7.01D-07 MaxDP=4.21D-05 DE= 1.08D-10 OVMax= 1.43D-08

 Cycle  25  Pass 1  IDiag  1:
 RMSU=  7.64D-08    CP:  1.00D+00  1.38D+00  7.59D-01  2.03D+00
 E= -529.531416158555     Delta-E=        0.000000000040 Rises=F Damp=F
 DIIS: error= 1.36D-10 at cycle  25 NSaved=  16.
 NSaved=16 IEnMin=14 EnMin= -529.531416158703     IErMin=16 ErrMin= 1.36D-10
 ErrMax= 1.36D-10  0.00D+00 EMaxC= 1.00D-01 BMatC= 1.20D-17 BMatP= 4.91D-17
 IDIUse=1 WtCom= 1.00D+00 WtEn= 0.00D+00
 Large coefficients: NSaved= 16 BigCof=    0.00 CofMax=   10.00 Det=-6.67D-17
 Inversion failed.  Reducing to 15 matrices.
 Coeff-Com: -0.390D-06-0.613D-06 0.341D-05 0.627D-05 0.124D-04 0.173D-04
 Coeff-Com: -0.114D-03-0.356D-03 0.150D-02-0.570D-03-0.466D-02-0.462D-01
 Coeff-Com: -0.321D-01 0.296D+00 0.787D+00
 Coeff:     -0.390D-06-0.613D-06 0.341D-05 0.627D-05 0.124D-04 0.173D-04
 Coeff:     -0.114D-03-0.356D-03 0.150D-02-0.570D-03-0.466D-02-0.462D-01
 Coeff:     -0.321D-01 0.296D+00 0.787D+00
 Gap=     0.028 Goal=   None    Shift=    0.000
 Gap=     0.259 Goal=   None    Shift=    0.000
 RMSDP=5.03D-07 MaxDP=3.16D-05 DE= 4.00D-11 OVMax= 1.52D-08

 Cycle  26  Pass 1  IDiag  1:
 RMSU=  2.22D-08    CP:  1.00D+00  1.40D+00  7.43D-01  2.19D+00  7.29D-01
 E= -529.531416158522     Delta-E=        0.000000000033 Rises=F Damp=F
 DIIS: error= 9.74D-11 at cycle  26 NSaved=  16.
 NSaved=16 IEnMin=13 EnMin= -529.531416158703     IErMin=16 ErrMin= 9.74D-11
 ErrMax= 9.74D-11  0.00D+00 EMaxC= 1.00D-01 BMatC= 2.42D-18 BMatP= 1.20D-17
 IDIUse=1 WtCom= 1.00D+00 WtEn= 0.00D+00
 Large coefficients: NSaved= 16 BigCof=    0.00 CofMax=   10.00 Det=-7.84D-18
 Inversion failed.  Reducing to 15 matrices.
 Coeff-Com:  0.905D-07-0.705D-06 0.917D-06-0.674D-05 0.342D-04 0.166D-04
 Coeff-Com: -0.941D-04-0.158D-03 0.111D-02 0.602D-02-0.473D-01-0.366D-01
 Coeff-Com:  0.723D-01 0.317D+00 0.688D+00
 Coeff:      0.905D-07-0.705D-06 0.917D-06-0.674D-05 0.342D-04 0.166D-04
 Coeff:     -0.941D-04-0.158D-03 0.111D-02 0.602D-02-0.473D-01-0.366D-01
 Coeff:      0.723D-01 0.317D+00 0.688D+00
 Gap=     0.028 Goal=   None    Shift=    0.000
 Gap=     0.259 Goal=   None    Shift=    0.000
 RMSDP=2.28D-07 MaxDP=1.31D-05 DE= 3.30D-11 OVMax= 4.27D-09

 Cycle  27  Pass 1  IDiag  1:
 RMSU=  1.92D-08    CP:  1.00D+00  1.41D+00  6.68D-01  2.04D+00  7.39D-01
                    CP:  1.68D+00
 E= -529.531416158598     Delta-E=       -0.000000000076 Rises=F Damp=F
 DIIS: error= 1.67D-10 at cycle  27 NSaved=  16.
 NSaved=16 IEnMin=12 EnMin= -529.531416158703     IErMin=15 ErrMin= 9.74D-11
 ErrMax= 1.67D-10  0.00D+00 EMaxC= 1.00D-01 BMatC= 3.31D-18 BMatP= 2.42D-18
 IDIUse=1 WtCom= 1.00D+00 WtEn= 0.00D+00
 Large coefficients: NSaved= 16 BigCof=    0.00 CofMax=   10.00 Det=-4.09D-18
 Inversion failed.  Reducing to 15 matrices.
 Coeff-Com: -0.154D-05 0.197D-06-0.488D-05 0.379D-04 0.197D-04-0.906D-04
 Coeff-Com: -0.247D-03 0.155D-02 0.656D-02-0.421D-01-0.346D-01 0.294D-01
 Coeff-Com:  0.207D+00 0.477D+00 0.356D+00
 Coeff:     -0.154D-05 0.197D-06-0.488D-05 0.379D-04 0.197D-04-0.906D-04
 Coeff:     -0.247D-03 0.155D-02 0.656D-02-0.421D-01-0.346D-01 0.294D-01
 Coeff:      0.207D+00 0.477D+00 0.356D+00
 Gap=     0.028 Goal=   None    Shift=    0.000
 Gap=     0.259 Goal=   None    Shift=    0.000
 RMSDP=4.45D-08 MaxDP=2.70D-06 DE=-7.56D-11 OVMax= 2.36D-09

 Cycle  28  Pass 1  IDiag  1:
 RMSU=  9.24D-09    CP:  1.00D+00  1.41D+00  6.38D-01  1.89D+00  7.14D-01
                    CP:  1.76D+00  1.58D+00
 E= -529.531416158506     Delta-E=        0.000000000092 Rises=F Damp=F
 DIIS: error= 4.99D-11 at cycle  28 NSaved=  16.
 NSaved=16 IEnMin=11 EnMin= -529.531416158703     IErMin=16 ErrMin= 4.99D-11
 ErrMax= 4.99D-11  0.00D+00 EMaxC= 1.00D-01 BMatC= 6.52D-19 BMatP= 2.42D-18
 IDIUse=1 WtCom= 1.00D+00 WtEn= 0.00D+00
 Large coefficients: NSaved= 16 BigCof=    0.00 CofMax=   10.00 Det=-2.41D-18
 Inversion failed.  Reducing to 15 matrices.
 Coeff-Com:  0.733D-06-0.316D-05 0.132D-04 0.727D-05-0.807D-05-0.153D-03
 Coeff-Com:  0.740D-03 0.397D-02-0.259D-01-0.204D-01 0.155D-01 0.114D+00
 Coeff-Com:  0.310D+00 0.164D+00 0.439D+00
 Coeff:      0.733D-06-0.316D-05 0.132D-04 0.727D-05-0.807D-05-0.153D-03
 Coeff:      0.740D-03 0.397D-02-0.259D-01-0.204D-01 0.155D-01 0.114D+00
 Coeff:      0.310D+00 0.164D+00 0.439D+00
 Gap=     0.028 Goal=   None    Shift=    0.000
 Gap=     0.259 Goal=   None    Shift=    0.000
 RMSDP=3.45D-08 MaxDP=2.30D-06 DE= 9.21D-11 OVMax= 8.94D-10

 Cycle  29  Pass 1  IDiag  1:
 RMSU=  2.85D-09    CP:  1.00D+00  1.41D+00  6.30D-01  1.85D+00  6.81D-01
                    CP:  1.90D+00  1.58D+00  1.26D+00
 E= -529.531416158594     Delta-E=       -0.000000000088 Rises=F Damp=F
 DIIS: error= 6.59D-11 at cycle  29 NSaved=  16.
 NSaved=16 IEnMin=10 EnMin= -529.531416158703     IErMin=15 ErrMin= 4.99D-11
 ErrMax= 6.59D-11  0.00D+00 EMaxC= 1.00D-01 BMatC= 6.22D-19 BMatP= 6.52D-19
 IDIUse=1 WtCom= 1.00D+00 WtEn= 0.00D+00
 Large coefficients: NSaved= 16 BigCof=    0.00 CofMax=   10.00 Det=-6.76D-19
 Inversion failed.  Reducing to 15 matrices.
 Coeff-Com: -0.242D-05 0.127D-04-0.133D-05-0.188D-04-0.740D-04 0.679D-03
 Coeff-Com:  0.300D-02-0.195D-01-0.156D-01 0.146D-01 0.939D-01 0.185D+00
 Coeff-Com: -0.348D-02 0.304D+00 0.437D+00
 Coeff:     -0.242D-05 0.127D-04-0.133D-05-0.188D-04-0.740D-04 0.679D-03
 Coeff:      0.300D-02-0.195D-01-0.156D-01 0.146D-01 0.939D-01 0.185D+00
 Coeff:     -0.348D-02 0.304D+00 0.437D+00
 Gap=     0.028 Goal=   None    Shift=    0.000
 Gap=     0.259 Goal=   None    Shift=    0.000
 RMSDP=2.44D-08 MaxDP=1.54D-06 DE=-8.79D-11 OVMax= 7.68D-10

 Cycle  30  Pass 1  IDiag  1:
 RMSU=  1.21D-09    CP:  1.00D+00  1.41D+00  6.22D-01  1.84D+00  6.69D-01
                    CP:  1.81D+00  1.50D+00  1.46D+00  1.69D+00
 E= -529.531416158531     Delta-E=        0.000000000063 Rises=F Damp=F
 DIIS: error= 8.11D-11 at cycle  30 NSaved=  16.
 NSaved=16 IEnMin= 9 EnMin= -529.531416158703     IErMin=14 ErrMin= 4.99D-11
 ErrMax= 8.11D-11  0.00D+00 EMaxC= 1.00D-01 BMatC= 7.60D-19 BMatP= 6.22D-19
 IDIUse=1 WtCom= 1.00D+00 WtEn= 0.00D+00
 Large coefficients: NSaved= 16 BigCof=    0.00 CofMax=   10.00 Det=-4.35D-19
 Inversion failed.  Reducing to 15 matrices.
 Coeff-Com:  0.115D-04-0.479D-05-0.250D-04-0.587D-04 0.616D-03 0.271D-02
 Coeff-Com: -0.168D-01-0.138D-01 0.113D-01 0.869D-01 0.128D+00-0.669D-01
 Coeff-Com:  0.294D+00 0.314D+00 0.259D+00
 Coeff:      0.115D-04-0.479D-05-0.250D-04-0.587D-04 0.616D-03 0.271D-02
 Coeff:     -0.168D-01-0.138D-01 0.113D-01 0.869D-01 0.128D+00-0.669D-01
 Coeff:      0.294D+00 0.314D+00 0.259D+00
 Gap=     0.028 Goal=   None    Shift=    0.000
 Gap=     0.259 Goal=   None    Shift=    0.000
 RMSDP=1.31D-08 MaxDP=8.51D-07 DE= 6.25D-11 OVMax= 5.25D-10

 Cycle  31  Pass 1  IDiag  1:
 RMSU=  5.72D-10    CP:  1.00D+00  1.41D+00  6.16D-01  1.86D+00  6.89D-01
                    CP:  1.78D+00  1.54D+00  1.53D+00  1.61D+00  9.91D-01
 E= -529.531416158561     Delta-E=       -0.000000000029 Rises=F Damp=F
 DIIS: error= 1.54D-10 at cycle  31 NSaved=  16.
 NSaved=16 IEnMin= 8 EnMin= -529.531416158703     IErMin=13 ErrMin= 4.99D-11
 ErrMax= 1.54D-10  0.00D+00 EMaxC= 1.00D-01 BMatC= 2.46D-18 BMatP= 6.22D-19
 IDIUse=1 WtCom= 1.00D+00 WtEn= 0.00D+00
 Large coefficients: NSaved= 16 BigCof=    0.00 CofMax=   10.00 Det=-4.02D-19
 Inversion failed.  Reducing to 15 matrices.
 Coeff-Com:  0.248D-05 0.638D-05-0.775D-04 0.456D-03 0.291D-02-0.163D-01
 Coeff-Com: -0.134D-01 0.851D-02 0.877D-01 0.138D+00-0.478D-01 0.310D+00
 Coeff-Com:  0.255D+00 0.176D+00 0.999D-01
 Coeff:      0.248D-05 0.638D-05-0.775D-04 0.456D-03 0.291D-02-0.163D-01
 Coeff:     -0.134D-01 0.851D-02 0.877D-01 0.138D+00-0.478D-01 0.310D+00
 Coeff:      0.255D+00 0.176D+00 0.999D-01
 Gap=     0.028 Goal=   None    Shift=    0.000
 Gap=     0.259 Goal=   None    Shift=    0.000
 RMSDP=2.99D-08 MaxDP=1.61D-06 DE=-2.94D-11 OVMax= 4.72D-10

 Cycle  32  Pass 1  IDiag  1:
 RMSU=  9.13D-10    CP:  1.00D+00  1.41D+00  6.28D-01  2.05D+00  7.99D-01
                    CP:  1.49D+00  1.12D+00  1.15D+00  1.84D+00  1.05D+00
                    CP:  1.33D+00
 E= -529.531416158449     Delta-E=        0.000000000112 Rises=F Damp=F
 DIIS: error= 6.77D-11 at cycle  32 NSaved=  16.
 NSaved=16 IEnMin= 7 EnMin= -529.531416158703     IErMin=12 ErrMin= 4.99D-11
 ErrMax= 6.77D-11  0.00D+00 EMaxC= 1.00D-01 BMatC= 5.90D-19 BMatP= 6.22D-19
 IDIUse=1 WtCom= 1.00D+00 WtEn= 0.00D+00
 Large coefficients: NSaved= 16 BigCof=    0.00 CofMax=   10.00 Det=-3.39D-19
 Inversion failed.  Reducing to 15 matrices.
 Coeff-Com:  0.255D-05-0.535D-04 0.359D-03 0.272D-02-0.146D-01-0.122D-01
 Coeff-Com:  0.773D-02 0.844D-01 0.105D+00-0.839D-01 0.305D+00 0.211D+00
 Coeff-Com:  0.724D-01 0.753D-01 0.247D+00
 Coeff:      0.255D-05-0.535D-04 0.359D-03 0.272D-02-0.146D-01-0.122D-01
 Coeff:      0.773D-02 0.844D-01 0.105D+00-0.839D-01 0.305D+00 0.211D+00
 Coeff:      0.724D-01 0.753D-01 0.247D+00
 Gap=     0.028 Goal=   None    Shift=    0.000
 Gap=     0.259 Goal=   None    Shift=    0.000
 RMSDP=7.12D-09 MaxDP=3.68D-07 DE= 1.12D-10 OVMax= 3.23D-10

 SCF Done:  E(UPBE1PBE) =  -529.531416158     A.U. after   32 cycles
            NFock= 32  Conv=0.71D-08     -V/T= 2.0027
 <Sx>= 0.0000 <Sy>= 0.0000 <Sz>= 0.5000 <S**2>= 0.7500 S= 0.5000
 <L.S>=  0.00000000000    
 KE= 5.280826750470D+02 PE=-2.105849901170D+03 EE= 6.237319736916D+02
 Annihilation of the first spin contaminant:
 S**2 before annihilation     0.7500,   after     0.7500
 Leave Link  502 at Thu Jan 30 13:04:03 2025, MaxMem=   104857600 cpu:             129.7 elap:             130.0
 (Enter /sw/cluster/pub/apps//g16/l601.exe)
 Copying SCF densities to generalized density rwf, IOpCl= 1 IROHF=0.

 **********************************************************************

            Population analysis using the SCF density.

 **********************************************************************

 Alpha  occ. eigenvalues --  -24.68800 -24.68798 -24.68798 -10.22747 -10.22747
 Alpha  occ. eigenvalues --  -10.22747 -10.13775 -10.13775 -10.13773  -1.17410
 Alpha  occ. eigenvalues --   -1.17335  -1.17333  -0.81099  -0.69421  -0.69418
 Alpha  occ. eigenvalues --   -0.56566  -0.56565  -0.50252  -0.46533  -0.43236
 Alpha  occ. eigenvalues --   -0.42786  -0.42783  -0.40913  -0.39035  -0.39034
 Alpha  occ. eigenvalues --   -0.35858  -0.35858  -0.30520  -0.30518  -0.29226
 Alpha  occ. eigenvalues --   -0.27071  -0.17017  -0.17015   0.05155
 Alpha virt. eigenvalues --    0.07910   0.07910   0.08845   0.08845   0.13005
 Alpha virt. eigenvalues --    0.13005   0.13324   0.14629   0.17530   0.18441
 Alpha virt. eigenvalues --    0.18442   0.19864   0.21095   0.21168   0.21168
 Alpha virt. eigenvalues --    0.22107   0.22107   0.22325   0.22717   0.22845
 Alpha virt. eigenvalues --    0.22846   0.23637   0.23639   0.26700   0.26702
 Alpha virt. eigenvalues --    0.27969   0.28918   0.28919   0.32257   0.32260
 Alpha virt. eigenvalues --    0.32783   0.34919   0.36855   0.37721   0.38127
 Alpha virt. eigenvalues --    0.38128   0.42962   0.42963   0.44222   0.45238
 Alpha virt. eigenvalues --    0.45674   0.45677   0.46609   0.46613   0.51512
 Alpha virt. eigenvalues --    0.51515   0.52741   0.53336   0.53338   0.56607
 Alpha virt. eigenvalues --    0.56609   0.57610   0.61453   0.65050   0.67382
 Alpha virt. eigenvalues --    0.67384   0.67876   0.67876   0.69483   0.72719
 Alpha virt. eigenvalues --    0.72720   0.77799   0.78101   0.79832   0.79835
 Alpha virt. eigenvalues --    0.83279   0.89340   0.89342   0.90922   0.95116
 Alpha virt. eigenvalues --    0.95119   1.01142   1.02312   1.02312   1.02394
 Alpha virt. eigenvalues --    1.07148   1.07150   1.07935   1.14179   1.14180
 Alpha virt. eigenvalues --    1.15815   1.18321   1.18324   1.30804   1.30806
 Alpha virt. eigenvalues --    1.35598   1.45912   1.50999   1.53722   1.53725
 Alpha virt. eigenvalues --    1.54527   1.55802   1.55805   1.58018   1.64278
 Alpha virt. eigenvalues --    1.64283   1.65371   1.65379   1.66198   1.68193
 Alpha virt. eigenvalues --    1.70042   1.70635   1.70636   1.76191   1.76193
 Alpha virt. eigenvalues --    1.94785   1.94794   2.00114   2.00119   2.03033
 Alpha virt. eigenvalues --    2.03040   2.07522   2.07580   2.07586   2.14840
 Alpha virt. eigenvalues --    2.17419   2.17421   2.19068   2.20208   2.20210
 Alpha virt. eigenvalues --    2.24974   2.39675   2.39679   2.41673   2.57530
 Alpha virt. eigenvalues --    2.57530   2.68884   2.74320   2.74498   2.83915
 Alpha virt. eigenvalues --    2.83918   2.85615   2.86002   2.86004   2.89581
 Alpha virt. eigenvalues --    2.89591   2.98930   2.98932   3.18927   3.24310
 Alpha virt. eigenvalues --    3.27143   3.32060   3.32063   3.48420   3.48422
 Alpha virt. eigenvalues --    3.74132   3.75281   3.75283   3.89966   3.90020
 Alpha virt. eigenvalues --    3.90021   3.91001   3.96138   3.98078   3.98080
 Alpha virt. eigenvalues --    4.10953   4.10954   4.11395   4.24604   4.25469
 Alpha virt. eigenvalues --    4.25480   4.28283   4.28288   4.93429   4.99089
 Alpha virt. eigenvalues --    5.00762   5.00763   6.45409   6.47128   6.47129
 Alpha virt. eigenvalues --    6.59127   6.59151   6.59152   6.84753   6.94224
 Alpha virt. eigenvalues --    6.94225  23.71158  24.09353  24.09356  24.29309
 Alpha virt. eigenvalues --   24.29314  24.38957  67.04923  67.05920  67.05922
  Beta  occ. eigenvalues --  -24.68797 -24.68794 -24.68794 -10.22751 -10.22751
  Beta  occ. eigenvalues --  -10.22751 -10.13747 -10.13746 -10.13745  -1.17401
  Beta  occ. eigenvalues --   -1.17326  -1.17325  -0.81084  -0.69388  -0.69385
  Beta  occ. eigenvalues --   -0.56532  -0.56531  -0.50234  -0.46517  -0.43127
  Beta  occ. eigenvalues --   -0.42769  -0.42766  -0.40886  -0.39019  -0.39018
  Beta  occ. eigenvalues --   -0.35808  -0.35807  -0.30480  -0.30479  -0.29210
  Beta  occ. eigenvalues --   -0.27035  -0.16978  -0.16976
  Beta virt. eigenvalues --    0.08894   0.08895   0.08953   0.10398   0.10399
  Beta virt. eigenvalues --    0.13855   0.13855   0.14000   0.15136   0.18378
  Beta virt. eigenvalues --    0.18668   0.18669   0.20157   0.22144   0.22327
  Beta virt. eigenvalues --    0.22328   0.22381   0.22381   0.23162   0.23177
  Beta virt. eigenvalues --    0.23474   0.23475   0.24233   0.24234   0.27394
  Beta virt. eigenvalues --    0.27395   0.28351   0.29579   0.29580   0.32326
  Beta virt. eigenvalues --    0.32329   0.34236   0.35348   0.37203   0.37998
  Beta virt. eigenvalues --    0.38419   0.38419   0.43588   0.43589   0.44799
  Beta virt. eigenvalues --    0.45569   0.46187   0.46188   0.47232   0.47235
  Beta virt. eigenvalues --    0.51820   0.51823   0.53174   0.53820   0.53822
  Beta virt. eigenvalues --    0.56760   0.56763   0.57862   0.61716   0.65252
  Beta virt. eigenvalues --    0.67635   0.67637   0.68105   0.68105   0.69621
  Beta virt. eigenvalues --    0.72914   0.72915   0.77851   0.78380   0.79945
  Beta virt. eigenvalues --    0.79948   0.83370   0.89557   0.89560   0.91152
  Beta virt. eigenvalues --    0.95388   0.95391   1.01413   1.02497   1.02497
  Beta virt. eigenvalues --    1.02526   1.07274   1.07276   1.07940   1.14338
  Beta virt. eigenvalues --    1.14338   1.15850   1.18363   1.18366   1.30827
  Beta virt. eigenvalues --    1.30830   1.35769   1.45962   1.51053   1.53801
  Beta virt. eigenvalues --    1.53804   1.54596   1.55881   1.55884   1.58101
  Beta virt. eigenvalues --    1.64305   1.64310   1.65453   1.65461   1.66273
  Beta virt. eigenvalues --    1.68197   1.70116   1.70684   1.70684   1.76267
  Beta virt. eigenvalues --    1.76269   1.94813   1.94822   2.00143   2.00148
  Beta virt. eigenvalues --    2.03109   2.03116   2.07622   2.07631   2.07637
  Beta virt. eigenvalues --    2.14936   2.17476   2.17478   2.19164   2.20274
  Beta virt. eigenvalues --    2.20277   2.25023   2.39715   2.39719   2.41694
  Beta virt. eigenvalues --    2.57590   2.57591   2.68919   2.74404   2.74549
  Beta virt. eigenvalues --    2.84042   2.84045   2.85749   2.86031   2.86032
  Beta virt. eigenvalues --    2.89630   2.89640   2.98973   2.98976   3.18964
  Beta virt. eigenvalues --    3.24327   3.27155   3.32079   3.32082   3.48449
  Beta virt. eigenvalues --    3.48451   3.74178   3.75312   3.75314   3.89963
  Beta virt. eigenvalues --    3.90017   3.90018   3.91023   3.96153   3.98089
  Beta virt. eigenvalues --    3.98091   4.10956   4.10956   4.11397   4.24611
  Beta virt. eigenvalues --    4.25489   4.25501   4.28307   4.28312   4.93449
  Beta virt. eigenvalues --    4.99104   5.00774   5.00775   6.45409   6.47135
  Beta virt. eigenvalues --    6.47137   6.59129   6.59153   6.59154   6.84760
  Beta virt. eigenvalues --    6.94236   6.94236  23.71169  24.09356  24.09360
  Beta virt. eigenvalues --   24.29334  24.29339  24.38976  67.04929  67.05927
  Beta virt. eigenvalues --   67.05928
          Condensed to atoms (all electrons):
               1          2          3          4          5          6
     1  C  663.888039-546.141235 541.493376-465.365490 541.670172-546.252164
     2  C -546.141235 513.729673-545.977483 444.252647-465.365422 444.350622
     3  C  541.493376-545.977483 663.489782-545.977534 541.493353-465.328908
     4  C -465.365490 444.252647-545.977534 513.729770-546.141258 444.350651
     5  C  541.670172-465.365422 541.493353-546.141258 663.887941-546.252101
     6  C -546.252164 444.350622-465.328908 444.350651-546.252101 513.920616
     7  H  -68.193950  65.320758 -68.172785  45.190493 -41.300548  45.201847
     8  H  -41.300548  45.190487 -68.172782  65.320762 -68.193944  45.201841
     9  H  -68.298617  45.258674 -41.348303  45.258678 -68.298608  65.423881
    10  F   -3.651318   4.447320  -5.852272   4.447320  -3.651318   2.842113
    11  F   -3.653703   2.843193  -3.652650   4.450225  -5.858149   4.451262
    12  F   -5.858150   4.450225  -3.652650   2.843193  -3.653703   4.451262
               7          8          9         10         11         12
     1  C  -68.193950 -41.300548 -68.298617  -3.651318  -3.653703  -5.858150
     2  C   65.320758  45.190487  45.258674   4.447320   2.843193   4.450225
     3  C  -68.172785 -68.172782 -41.348303  -5.852272  -3.652650  -3.652650
     4  C   45.190493  65.320762  45.258678   4.447320   4.450225   2.843193
     5  C  -41.300548 -68.193944 -68.298608  -3.651318  -5.858149  -3.653703
     6  C   45.201847  45.201841  65.423881   2.842113   4.451262   4.451262
     7  H   14.838606   4.124054   4.130465   0.586925   0.144255   0.587345
     8  H    4.124054  14.838604   4.130465   0.586925   0.587345   0.144255
     9  H    4.130465   4.130465  14.884073   0.144358   0.588216   0.588216
    10  F    0.586925   0.586925   0.144358   9.254526   0.011019   0.011019
    11  F    0.144255   0.587345   0.588216   0.011019   9.254538   0.011024
    12  F    0.587345   0.144255   0.588216   0.011019   0.011024   9.254538
          Atomic-Atomic Spin Densities.
               1          2          3          4          5          6
     1  C  653.696981-542.684036 538.789515-463.097637 538.965568-542.791312
     2  C -542.684036 500.680920-542.519487 443.485113-463.097569 443.581862
     3  C  538.789515-542.519487 653.299508-542.519538 538.789491-463.060678
     4  C -463.097637 443.485113-542.519538 500.681017-542.684058 443.581891
     5  C  538.965568-463.097569 538.789491-542.684058 653.696882-542.791250
     6  C -542.791312 443.581862-463.060678 443.581891-542.791250 500.866766
     7  H  -68.039468  64.661280 -68.018279  45.213771 -41.289003  45.225134
     8  H  -41.289003  45.213765 -68.018276  64.661284 -68.039462  45.225128
     9  H  -68.144032  45.281865 -41.336722  45.281869 -68.144023  64.764382
    10  F   -3.660951   4.742806  -6.474878   4.742806  -3.660951   2.849921
    11  F   -3.663350   2.851021  -3.662304   4.745875  -6.480847   4.746633
    12  F   -6.480847   4.745874  -3.662304   2.851022  -3.663349   4.746633
               7          8          9         10         11         12
     1  C  -68.039468 -41.289003 -68.144032  -3.660951  -3.663350  -6.480847
     2  C   64.661280  45.213765  45.281865   4.742806   2.851021   4.745874
     3  C  -68.018279 -68.018276 -41.336722  -6.474878  -3.662304  -3.662304
     4  C   45.213771  64.661284  45.281869   4.742806   4.745875   2.851022
     5  C  -41.289003 -68.039462 -68.144023  -3.660951  -6.480847  -3.663349
     6  C   45.225134  45.225128  64.764382   2.849921   4.746633   4.746633
     7  H   14.386130   4.124021   4.130432   0.606582   0.143972   0.607013
     8  H    4.124021  14.386128   4.130432   0.606582   0.607013   0.143972
     9  H    4.130432   4.130432  14.431740   0.144075   0.607868   0.607868
    10  F    0.606582   0.606582   0.144075   0.114450   0.011477   0.011477
    11  F    0.143972   0.607013   0.607868   0.011477   0.114578   0.011481
    12  F    0.607013   0.143972   0.607868   0.011477   0.011481   0.114578
 Mulliken charges and spin densities:
               1          2
     1  C    7.663587  -8.398572
     2  C   -6.359458   6.943414
     3  C    7.658856  -8.393950
     4  C   -6.359459   6.943415
     5  C    7.663586  -8.398571
     6  C   -6.360921   6.945110
     7  H   -1.457465   1.751585
     8  H   -1.457464   1.751585
     9  H   -1.461497   1.755753
    10  F   -0.176617   0.033396
    11  F   -0.176574   0.033418
    12  F   -0.176574   0.033418
 Sum of Mulliken charges =  -1.00000   1.00000
 Mulliken charges and spin densities with hydrogens summed into heavy atoms:
               1          2
     1  C    7.663587  -8.398572
     2  C   -7.816923   8.694999
     3  C    7.658856  -8.393950
     4  C   -7.816924   8.694999
     5  C    7.663586  -8.398571
     6  C   -7.822418   8.700863
    10  F   -0.176617   0.033396
    11  F   -0.176574   0.033418
    12  F   -0.176574   0.033418
 Electronic spatial extent (au):  <R**2>=           1215.3098
 Charge=             -1.0000 electrons
 Dipole moment (field-independent basis, Debye):
    X=             -0.0000    Y=             -0.0132    Z=             -0.0000  Tot=              0.0132
 Quadrupole moment (field-independent basis, Debye-Ang):
   XX=            -99.2358   YY=            -99.2762   ZZ=            -71.5380
   XY=              0.0000   XZ=             -0.0000   YZ=             -0.0000
 Traceless Quadrupole moment (field-independent basis, Debye-Ang):
   XX=             -9.2191   YY=             -9.2595   ZZ=             18.4786
   XY=              0.0000   XZ=             -0.0000   YZ=             -0.0000
 Octapole moment (field-independent basis, Debye-Ang**2):
  XXX=             -0.0000  YYY=            -12.2047  ZZZ=             -0.0000  XYY=             -0.0000
  XXY=             11.8247  XXZ=             -0.0000  XZZ=             -0.0000  YZZ=             -0.0539
  YYZ=             -0.0000  XYZ=              0.0000
 Hexadecapole moment (field-independent basis, Debye-Ang**3):
 XXXX=          -1609.6892 YYYY=          -1610.9788 ZZZZ=           -271.5371 XXXY=              0.0000
 XXXZ=             -0.0000 YYYX=              0.0000 YYYZ=             -0.0000 ZZZX=             -0.0000
 ZZZY=             -0.0000 XXYY=           -536.6916 XXZZ=           -268.3136 YYZZ=           -268.4510
 XXYZ=              0.0000 YYXZ=             -0.0000 ZZXY=              0.0000
 N-N= 4.245038362727D+02 E-N=-2.105849901170D+03  KE= 5.280826750470D+02
                          Isotropic Fermi Contact Couplings
        Atom                 a.u.       MegaHertz       Gauss      10(-4) cm-1
     1  C(13)             -0.00043      -0.48126      -0.17172      -0.16053
     2  C(13)              0.02596      29.18504      10.41395       9.73508
     3  C(13)             -0.00043      -0.48109      -0.17167      -0.16048
     4  C(13)              0.02596      29.18504      10.41395       9.73508
     5  C(13)             -0.00043      -0.48126      -0.17172      -0.16053
     6  C(13)              0.02600      29.22451      10.42803       9.74825
     7  H(1)              -0.00020      -0.89128      -0.31803      -0.29730
     8  H(1)              -0.00020      -0.89128      -0.31803      -0.29730
     9  H(1)              -0.00020      -0.89304      -0.31866      -0.29789
    10  F(19)              0.02110      88.78508      31.68072      29.61551
    11  F(19)              0.02112      88.84861      31.70339      29.63671
    12  F(19)              0.02112      88.84861      31.70339      29.63671
 --------------------------------------------------------
       Center         ----  Spin Dipole Couplings  ----
                      3XX-RR        3YY-RR        3ZZ-RR
 --------------------------------------------------------
     1   Atom        0.000883      0.001192     -0.002075
     2   Atom        0.001827     -0.000352     -0.001475
     3   Atom        0.001343      0.000732     -0.002075
     4   Atom        0.001827     -0.000352     -0.001475
     5   Atom        0.000883      0.001192     -0.002075
     6   Atom       -0.001445      0.002925     -0.001479
     7   Atom        0.002309     -0.000446     -0.001862
     8   Atom        0.002309     -0.000446     -0.001862
     9   Atom       -0.001829      0.003695     -0.001866
    10   Atom       -0.000222      0.003943     -0.003721
    11   Atom        0.002893      0.000827     -0.003721
    12   Atom        0.002893      0.000827     -0.003721
 --------------------------------------------------------
                        XY            XZ            YZ
 --------------------------------------------------------
     1   Atom       -0.000265     -0.000000     -0.000000
     2   Atom       -0.001884     -0.000000      0.000000
     3   Atom       -0.000000      0.000000      0.000000
     4   Atom        0.001884     -0.000000     -0.000000
     5   Atom        0.000265     -0.000000      0.000000
     6   Atom        0.000000      0.000000     -0.000000
     7   Atom       -0.002387      0.000000     -0.000000
     8   Atom        0.002387      0.000000      0.000000
     9   Atom        0.000000     -0.000000      0.000000
    10   Atom       -0.000000      0.000000     -0.000000
    11   Atom       -0.001801     -0.000000      0.000000
    12   Atom        0.001801     -0.000000     -0.000000
 --------------------------------------------------------


 ---------------------------------------------------------------------------------
              Anisotropic Spin Dipole Couplings in Principal Axis System
 ---------------------------------------------------------------------------------

       Atom             a.u.   MegaHertz   Gauss  10(-4) cm-1        Axes

              Baa    -0.0021    -0.278    -0.099    -0.093  0.0000  0.0000  1.0000
     1 C(13)  Bbb     0.0007     0.098     0.035     0.033  0.8668  0.4986 -0.0000
              Bcc     0.0013     0.180     0.064     0.060 -0.4986  0.8668 -0.0000
 
              Baa    -0.0015    -0.198    -0.071    -0.066 -0.0000 -0.0000  1.0000
     2 C(13)  Bbb    -0.0014    -0.193    -0.069    -0.064  0.4997  0.8662  0.0000
              Bcc     0.0029     0.391     0.140     0.130  0.8662 -0.4997 -0.0000
 
              Baa    -0.0021    -0.278    -0.099    -0.093 -0.0000 -0.0000  1.0000
     3 C(13)  Bbb     0.0007     0.098     0.035     0.033  0.0000  1.0000  0.0000
              Bcc     0.0013     0.180     0.064     0.060  1.0000 -0.0000  0.0000
 
              Baa    -0.0015    -0.198    -0.071    -0.066 -0.0000  0.0000  1.0000
     4 C(13)  Bbb    -0.0014    -0.193    -0.069    -0.064 -0.4997  0.8662 -0.0000
              Bcc     0.0029     0.391     0.140     0.130  0.8662  0.4997 -0.0000
 
              Baa    -0.0021    -0.278    -0.099    -0.093  0.0000 -0.0000  1.0000
     5 C(13)  Bbb     0.0007     0.098     0.035     0.033  0.8668 -0.4986 -0.0000
              Bcc     0.0013     0.180     0.064     0.060  0.4986  0.8668  0.0000
 
              Baa    -0.0015    -0.199    -0.071    -0.066 -0.0000  0.0000  1.0000
     6 C(13)  Bbb    -0.0014    -0.194    -0.069    -0.065  1.0000 -0.0000  0.0000
              Bcc     0.0029     0.392     0.140     0.131  0.0000  1.0000 -0.0000
 
              Baa    -0.0019    -0.994    -0.355    -0.331 -0.0000 -0.0000  1.0000
     7 H(1)   Bbb    -0.0018    -0.974    -0.347    -0.325  0.5001  0.8660  0.0000
              Bcc     0.0037     1.967     0.702     0.656  0.8660 -0.5001  0.0000
 
              Baa    -0.0019    -0.994    -0.355    -0.331  0.0000 -0.0000  1.0000
     8 H(1)   Bbb    -0.0018    -0.974    -0.347    -0.325 -0.5001  0.8660  0.0000
              Bcc     0.0037     1.967     0.702     0.656  0.8660  0.5001  0.0000
 
              Baa    -0.0019    -0.996    -0.355    -0.332  0.0000 -0.0000  1.0000
     9 H(1)   Bbb    -0.0018    -0.976    -0.348    -0.325  1.0000 -0.0000 -0.0000
              Bcc     0.0037     1.971     0.703     0.658  0.0000  1.0000  0.0000
 
              Baa    -0.0037    -1.869    -0.667    -0.623 -0.0000  0.0000  1.0000
    10 F(19)  Bbb    -0.0002    -0.112    -0.040    -0.037  1.0000  0.0000  0.0000
              Bcc     0.0039     1.980     0.707     0.660 -0.0000  1.0000 -0.0000
 
              Baa    -0.0037    -1.869    -0.667    -0.623  0.0000 -0.0000  1.0000
    11 F(19)  Bbb    -0.0002    -0.108    -0.039    -0.036  0.5012  0.8653  0.0000
              Bcc     0.0039     1.977     0.706     0.660  0.8653 -0.5012 -0.0000
 
              Baa    -0.0037    -1.869    -0.667    -0.623  0.0000  0.0000  1.0000
    12 F(19)  Bbb    -0.0002    -0.108    -0.039    -0.036 -0.5012  0.8653 -0.0000
              Bcc     0.0039     1.977     0.706     0.660  0.8653  0.5012 -0.0000
 

 ---------------------------------------------------------------------------------

 No NMR shielding tensors so no spin-rotation constants.
 Leave Link  601 at Thu Jan 30 13:04:03 2025, MaxMem=   104857600 cpu:               0.1 elap:               0.1
 (Enter /sw/cluster/pub/apps//g16/l701.exe)
 ... and contract with generalized density number  0.
 Compute integral first derivatives.
 Leave Link  701 at Thu Jan 30 13:04:03 2025, MaxMem=   104857600 cpu:               0.0 elap:               0.0
 (Enter /sw/cluster/pub/apps//g16/l702.exe)
 L702 exits ... SP integral derivatives will be done elsewhere.
 Leave Link  702 at Thu Jan 30 13:04:03 2025, MaxMem=   104857600 cpu:               0.0 elap:               0.0
 (Enter /sw/cluster/pub/apps//g16/l703.exe)
 Integral derivatives from FoFJK, PRISM(SPDF).
 Compute integral first derivatives, UseDBF=F ICtDFT=           0.
 Calling FoFJK, ICntrl=      2127 FMM=F ISym2X=0 I1Cent= 0 IOpClX= 1 NMat=1 NMatS=1 NMatT=0.
 FoFJK:  IHMeth= 1 ICntrl=    2127 DoSepK=F KAlg= 0 I1Cent=           0 FoldK=F
 IRaf=         0 NMat=       1 IRICut=       1 DoRegI=T DoRafI=F ISym2E= 0 IDoP0=0 IntGTp=1.
 FoFCou: FMM=F IPFlag=           0 FMFlag=      100000 FMFlg1=         800
         NFxFlg=           0 DoJE=F BraDBF=F KetDBF=F FulRan=T
         wScrn=  0.000000 ICntrl=      2127 IOpCl=  1 I1Cent=           0 NGrid=           0
         NMat0=    1 NMatS0=      1 NMatT0=    0 NMatD0=    1 NMtDS0=    0 NMtDT0=    0
 Symmetry not used in FoFCou.
 Leave Link  703 at Thu Jan 30 13:04:15 2025, MaxMem=   104857600 cpu:              11.6 elap:              11.7
 (Enter /sw/cluster/pub/apps//g16/l716.exe)
 Dipole        =-9.93794966D-08-5.20561686D-03-2.97026836D-09
 -------------------------------------------------------------------
 Center     Atomic                   Forces (Hartrees/Bohr)
 Number     Number              X              Y              Z
 -------------------------------------------------------------------
      1        6          -0.003330013   -0.001963978   -0.000000000
      2        6           0.002584438   -0.001472162    0.000000000
      3        6          -0.000000000    0.003885792   -0.000000000
      4        6          -0.002584438   -0.001472162    0.000000000
      5        6           0.003330012   -0.001963978   -0.000000000
      6        6           0.000000001    0.002943248    0.000000000
      7        1           0.000033995   -0.000021904   -0.000000000
      8        1          -0.000033995   -0.000021904   -0.000000000
      9        1          -0.000000000    0.000055679   -0.000000000
     10        9           0.000000000   -0.001623555   -0.000000000
     11        9          -0.001391087    0.000827463   -0.000000000
     12        9           0.001391087    0.000827463   -0.000000000
 -------------------------------------------------------------------
 Cartesian Forces:  Max     0.003885792 RMS     0.001483517
 Leave Link  716 at Thu Jan 30 13:04:15 2025, MaxMem=   104857600 cpu:               0.0 elap:               0.0
 (Enter /sw/cluster/pub/apps//g16/l103.exe)

 GradGradGradGradGradGradGradGradGradGradGradGradGradGradGradGradGradGrad
 Berny optimization.
 FormGI is forming the generalized inverse of G from B-inverse, IUseBI=4.
 Internal  Forces:  Max     0.001623555 RMS     0.000673547
 Search for a local minimum.
 Step number   1 out of a maximum of   64
 All quantities printed in internal units (Hartrees-Bohrs-Radians)
 RMS Force = .67355D-03 SwitMx=.10000D-02 MixMth= 2
 Mixed Optimization -- En-DIIS/RFO-DIIS
 Second derivative matrix not updated -- first step.
 ITU=  0
     Eigenvalues ---    0.02301   0.02301   0.02301   0.02301   0.02301
     Eigenvalues ---    0.02301   0.02301   0.02301   0.02301   0.16000
     Eigenvalues ---    0.16000   0.16000   0.23500   0.23529   0.23529
     Eigenvalues ---    0.25000   0.25000   0.25000   0.35755   0.35755
     Eigenvalues ---    0.35756   0.43919   0.43923   0.48384   0.48387
     Eigenvalues ---    0.48390   0.48392   0.57733   0.57733   0.57733
 RFO step:  Lambda=-8.20098641D-05 EMin= 2.30095711D-02
 Linear search not attempted -- first point.
 Iteration  1 RMS(Cart)=  0.00186524 RMS(Int)=  0.00000349
 Iteration  2 RMS(Cart)=  0.00000489 RMS(Int)=  0.00000002
 Iteration  3 RMS(Cart)=  0.00000000 RMS(Int)=  0.00000002
 ITry= 1 IFail=0 DXMaxC= 4.89D-03 DCOld= 1.00D+10 DXMaxT= 3.00D-01 DXLimC= 3.00D+00 Rises=F
 Variable       Old X    -DE/DX   Delta X   Delta X   Delta X     New X
                                 (Linear)    (Quad)   (Total)
    R1        2.61532   0.00041   0.00000   0.00084   0.00084   2.61615
    R2        2.61528   0.00042   0.00000   0.00087   0.00087   2.61615
    R3        2.52781   0.00162   0.00000   0.00280   0.00280   2.53061
    R4        2.61523   0.00044   0.00000   0.00091   0.00091   2.61613
    R5        2.04467   0.00004   0.00000   0.00011   0.00011   2.04478
    R6        2.61523   0.00044   0.00000   0.00091   0.00091   2.61613
    R7        2.52781   0.00162   0.00000   0.00281   0.00281   2.53062
    R8        2.61532   0.00041   0.00000   0.00084   0.00084   2.61615
    R9        2.04467   0.00004   0.00000   0.00011   0.00011   2.04478
   R10        2.61528   0.00042   0.00000   0.00087   0.00087   2.61615
   R11        2.52781   0.00162   0.00000   0.00280   0.00280   2.53061
   R12        2.04464   0.00006   0.00000   0.00016   0.00016   2.04480
    A1        2.15085   0.00131   0.00000   0.00556   0.00556   2.15640
    A2        2.06601  -0.00063   0.00000  -0.00267  -0.00267   2.06334
    A3        2.06633  -0.00068   0.00000  -0.00289  -0.00289   2.06344
    A4        2.03807  -0.00133   0.00000  -0.00563  -0.00563   2.03244
    A5        2.12249   0.00066   0.00000   0.00283   0.00283   2.12532
    A6        2.12262   0.00066   0.00000   0.00280   0.00280   2.12543
    A7        2.15067   0.00133   0.00000   0.00566   0.00566   2.15633
    A8        2.06626  -0.00066   0.00000  -0.00283  -0.00283   2.06343
    A9        2.06626  -0.00066   0.00000  -0.00283  -0.00283   2.06343
   A10        2.03807  -0.00133   0.00000  -0.00563  -0.00563   2.03244
   A11        2.12262   0.00066   0.00000   0.00280   0.00280   2.12543
   A12        2.12249   0.00066   0.00000   0.00283   0.00283   2.12532
   A13        2.15085   0.00131   0.00000   0.00556   0.00556   2.15640
   A14        2.06601  -0.00063   0.00000  -0.00267  -0.00267   2.06334
   A15        2.06633  -0.00068   0.00000  -0.00289  -0.00289   2.06344
   A16        2.03786  -0.00129   0.00000  -0.00551  -0.00551   2.03236
   A17        2.12266   0.00065   0.00000   0.00275   0.00275   2.12541
   A18        2.12266   0.00065   0.00000   0.00275   0.00275   2.12541
    D1        0.00000   0.00000   0.00000   0.00000   0.00000   0.00000
    D2        3.14159  -0.00000   0.00000  -0.00000   0.00000   3.14159
    D3        3.14159   0.00000   0.00000   0.00000   0.00000   3.14159
    D4       -0.00000  -0.00000   0.00000  -0.00000   0.00000   0.00000
    D5        0.00000  -0.00000   0.00000  -0.00000  -0.00000  -0.00000
    D6        3.14159   0.00000   0.00000   0.00000   0.00000   3.14159
    D7        3.14159  -0.00000   0.00000  -0.00000   0.00000   3.14159
    D8        0.00000   0.00000   0.00000   0.00000   0.00000   0.00000
    D9        0.00000  -0.00000   0.00000  -0.00000  -0.00000   0.00000
[...]
   D19        3.14159   0.00000   0.00000  -0.00000  -0.00000   3.14159
   D20       -0.00000   0.00000   0.00000   0.00000   0.00000   0.00000
   D21       -0.00000   0.00000   0.00000   0.00000   0.00000   0.00000
   D22        3.14159  -0.00000   0.00000   0.00000   0.00000  -3.14159
   D23        3.14159   0.00000   0.00000  -0.00000  -0.00000   3.14159
   D24        0.00000  -0.00000   0.00000  -0.00000  -0.00000  -0.00000
         Item               Value     Threshold  Converged?
 Maximum Force            0.000145     0.000450     YES
 RMS     Force            0.000037     0.000300     YES
 Maximum Displacement     0.000275     0.001800     YES
 RMS     Displacement     0.000079     0.001200     YES
 Predicted change in Energy=-9.010004D-08
 Optimization completed.
    -- Stationary point found.
                           ----------------------------
                           !   Optimized Parameters   !
                           ! (Angstroms and Degrees)  !
 --------------------------                            --------------------------
 ! Name  Definition              Value          Derivative Info.                !
 --------------------------------------------------------------------------------
 ! R1    R(1,2)                  1.3844         -DE/DX =    0.0                 !
 ! R2    R(1,6)                  1.3844         -DE/DX =    0.0                 !
 ! R3    R(1,12)                 1.3404         -DE/DX =    0.0001              !
 ! R4    R(2,3)                  1.3844         -DE/DX =    0.0                 !
 ! R5    R(2,7)                  1.0818         -DE/DX =    0.0                 !
 ! R6    R(3,4)                  1.3844         -DE/DX =    0.0                 !
 ! R7    R(3,10)                 1.3404         -DE/DX =    0.0001              !
 ! R8    R(4,5)                  1.3844         -DE/DX =    0.0                 !
 ! R9    R(4,8)                  1.0818         -DE/DX =    0.0                 !
 ! R10   R(5,6)                  1.3844         -DE/DX =    0.0                 !
 ! R11   R(5,11)                 1.3404         -DE/DX =    0.0001              !
 ! R12   R(6,9)                  1.0818         -DE/DX =    0.0                 !
 ! A1    A(2,1,6)              123.6649         -DE/DX =    0.0                 !
 ! A2    A(2,1,12)             118.1664         -DE/DX =    0.0                 !
 ! A3    A(6,1,12)             118.1687         -DE/DX =    0.0                 !
 ! A4    A(1,2,3)              116.3358         -DE/DX =    0.0                 !
 ! A5    A(1,2,7)              121.831          -DE/DX =    0.0                 !
 ! A6    A(3,2,7)              121.8332         -DE/DX =    0.0                 !
 ! A7    A(2,3,4)              123.6642         -DE/DX =    0.0                 !
 ! A8    A(2,3,10)             118.1679         -DE/DX =    0.0                 !
 ! A9    A(4,3,10)             118.1679         -DE/DX =    0.0                 !
 ! A10   A(3,4,5)              116.3358         -DE/DX =    0.0                 !
 ! A11   A(3,4,8)              121.8332         -DE/DX =    0.0                 !
 ! A12   A(5,4,8)              121.831          -DE/DX =    0.0                 !
 ! A13   A(4,5,6)              123.6649         -DE/DX =    0.0                 !
 ! A14   A(4,5,11)             118.1664         -DE/DX =    0.0                 !
 ! A15   A(6,5,11)             118.1687         -DE/DX =    0.0                 !
 ! A16   A(1,6,5)              116.3344         -DE/DX =    0.0                 !
 ! A17   A(1,6,9)              121.8328         -DE/DX =    0.0                 !
 ! A18   A(5,6,9)              121.8328         -DE/DX =    0.0                 !
 ! D1    D(6,1,2,3)              0.0            -DE/DX =    0.0                 !
 ! D2    D(6,1,2,7)            180.0            -DE/DX =    0.0                 !
 ! D3    D(12,1,2,3)           180.0            -DE/DX =    0.0                 !
 ! D4    D(12,1,2,7)             0.0            -DE/DX =    0.0                 !
 ! D5    D(2,1,6,5)              0.0            -DE/DX =    0.0                 !
 ! D6    D(2,1,6,9)           -180.0            -DE/DX =    0.0                 !
 ! D7    D(12,1,6,5)           180.0            -DE/DX =    0.0                 !
 ! D8    D(12,1,6,9)             0.0            -DE/DX =    0.0                 !
 ! D9    D(1,2,3,4)              0.0            -DE/DX =    0.0                 !
 ! D10   D(1,2,3,10)          -180.0            -DE/DX =    0.0                 !
 ! D11   D(7,2,3,4)           -180.0            -DE/DX =    0.0                 !
 ! D12   D(7,2,3,10)             0.0            -DE/DX =    0.0                 !
 ! D13   D(2,3,4,5)              0.0            -DE/DX =    0.0                 !
 ! D14   D(2,3,4,8)           -180.0            -DE/DX =    0.0                 !
 ! D15   D(10,3,4,5)          -180.0            -DE/DX =    0.0                 !
 ! D16   D(10,3,4,8)             0.0            -DE/DX =    0.0                 !
 ! D17   D(3,4,5,6)              0.0            -DE/DX =    0.0                 !
 ! D18   D(3,4,5,11)          -180.0            -DE/DX =    0.0                 !
 ! D19   D(8,4,5,6)            180.0            -DE/DX =    0.0                 !
 ! D20   D(8,4,5,11)             0.0            -DE/DX =    0.0                 !
 ! D21   D(4,5,6,1)              0.0            -DE/DX =    0.0                 !
 ! D22   D(4,5,6,9)           -180.0            -DE/DX =    0.0                 !
 ! D23   D(11,5,6,1)           180.0            -DE/DX =    0.0                 !
 ! D24   D(11,5,6,9)             0.0            -DE/DX =    0.0                 !
 --------------------------------------------------------------------------------
 GradGradGradGradGradGradGradGradGradGradGradGradGradGradGradGradGradGrad

 Leave Link  103 at Thu Jan 30 13:16:08 2025, MaxMem=   104857600 cpu:               0.0 elap:               0.0
 (Enter /sw/cluster/pub/apps//g16/l9999.exe)

 ----------------------------------------------------------------------

 Electric dipole moment (input orientation):
 (Debye = 10**-18 statcoulomb cm , SI units = C m)
                  (au)            (Debye)         (10**-30 SI)
   Tot        0.321455D-02      0.817057D-02      0.272541D-01
   x          0.000000D+00      0.000000D+00      0.000000D+00
   y         -0.321455D-02     -0.817057D-02     -0.272541D-01
   z          0.000000D+00      0.000000D+00      0.000000D+00

 Dipole polarizability, Alpha (input orientation).
 (esu units = cm**3 , SI units = C**2 m**2 J**-1)
 Alpha(0;0):
               (au)            (10**-24 esu)      (10**-40 SI)
   iso        0.285589D+04      0.423199D+03      0.470872D+03
   aniso      0.390540D+04      0.578721D+03      0.643914D+03
   xx         0.414054D+04      0.613565D+03      0.682683D+03
   yx        -0.402607D+01     -0.596601D+00     -0.663809D+00
   yy         0.417475D+04      0.618635D+03      0.688324D+03
   zx        -0.592310D+00     -0.877712D-01     -0.976586D-01
   zy        -0.104890D+00     -0.155432D-01     -0.172941D-01
   zz         0.252363D+03      0.373964D+02      0.416091D+02

 ----------------------------------------------------------------------

 Dipole orientation:
     6          2.22269042          0.00007343         -1.28308872
     6          2.30616344          0.00021566          1.33166995
     6         -0.00016241          0.00013441          2.56646139
     6         -2.30633196         -0.00007623          1.33137808
     6         -2.22252801         -0.00020786         -1.28337000
     6          0.00016852         -0.00013950         -2.66306728
     1          4.07648833          0.00038125          2.35386960
     1         -4.07678621         -0.00013471          2.35335368
     1          0.00029789         -0.00024653         -4.70733593
     9         -0.00032270          0.00026711          5.09940445
     9         -4.41606209         -0.00041297         -2.54991708
     9          4.41638478          0.00014595         -2.54935818

 Electric dipole moment (dipole orientation):
 (Debye = 10**-18 statcoulomb cm , SI units = C m)
                  (au)            (Debye)         (10**-30 SI)
   Tot        0.321455D-02      0.817057D-02      0.272541D-01
   x          0.000000D+00      0.000000D+00      0.000000D+00
   y          0.000000D+00      0.000000D+00      0.000000D+00
   z          0.321455D-02      0.817057D-02      0.272541D-01

 Dipole polarizability, Alpha (dipole orientation).
 (esu units = cm**3 , SI units = C**2 m**2 J**-1)
 Alpha(0;0):
               (au)            (10**-24 esu)      (10**-40 SI)
   iso        0.285589D+04      0.423199D+03      0.470872D+03
   aniso      0.390540D+04      0.578721D+03      0.643914D+03
   xx         0.414054D+04      0.613565D+03      0.682683D+03
   yx        -0.346071D+00     -0.512824D-01     -0.570593D-01
   yy         0.252363D+03      0.373964D+02      0.416091D+02
   zx         0.402391D+01      0.596282D+00      0.663454D+00
   zy         0.310556D+00      0.460197D-01      0.512038D-01
   zz         0.417475D+04      0.618635D+03      0.688324D+03

 ----------------------------------------------------------------------
 1\1\GINC-N02\Freq\UPBE1PBE\6-311++G(d,p)\C6H3F3(1-,2)\UNKNOWN\30-Jan-2
 025\0\\#P Geom=AllCheck Guess=TCheck SCRF=Check GenChk UPBE1PBE/6-311+
 +G(d,p) Freq\\1 3 5-DFB SP\\-1,2\C,1.1761541487,0.6790557349,-0.000000
 005\C,1.2204137309,-0.7046121667,-0.0000000126\C,-0.0000000008,-1.3581
 128855,-0.0000000011\C,-1.2204137313,-0.7046121667,-0.0000000149\C,-1.
 1761541486,0.6790557337,-0.0000000018\C,-0.0000000004,1.4092345179,-0.
 0000000108\H,2.1572635472,-1.245477646,0.0000000023\H,-2.1572635474,-1
 .245477647,-0.0000000035\H,0.0000000007,2.4910149084,0.0000000047\F,-0
 .0000000003,-2.6984886334,0.0000000178\F,-2.336964811,1.3492101329,0.0
 00000015\F,2.3369648122,1.3492101335,0.000000011\\Version=ES64L-G16Rev
 A.03\HF=-529.5314748\S2=0.750032\S2-1=0.\S2A=0.75\RMSD=3.523e-09\RMSF=
 6.362e-05\ZeroPoint=0.0756895\Thermal=0.0826509\Dipole=0.0000002,-0.00
 3229,-0.0000002\DipoleDeriv=-1.8503496,0.0005822,0.0025722,-0.0368526,
 -2.1449423,-0.0107268,-0.0893962,0.0205844,-2.078974,-1.5079874,1.4639
 857,-0.0089959,1.4390317,0.4487937,0.0095599,0.0424059,0.0218966,2.762
 5188,-1.737228,0.0008155,0.0161671,-0.002211,-2.0488663,-0.0102786,0.0
 234441,-0.0676721,-2.0552919,-1.545675,-1.4601853,-0.0108377,-1.435026
 8,0.4491661,0.0033565,-0.0018763,0.0115152,2.7595291,-1.7288849,0.0119
 204,0.0086218,0.0537596,-2.1422444,0.0004018,0.0162294,0.0268371,-2.06
 84722,0.9204024,-0.0028369,-0.0039468,-0.0200763,-2.1003211,0.0035478,
 0.0384489,-0.00502,2.7825654,-0.4866127,-0.0195065,-0.0014222,-0.00929
 38,-0.5373088,0.0039421,-0.0066281,-0.003505,-1.0631269,-0.519687,0.01
 22735,-0.0024821,0.0212672,-0.5365709,-0.0001857,-0.0091451,-0.0051886
 ,-1.0626551,-0.5409273,-0.0000978,0.0010129,-0.0162796,-0.4529283,-0.0
 012846,-0.0141866,-0.0019236,-1.0560201,1.4386685,0.0006459,-0.0008321
 ,0.0057051,3.9330368,0.0010279,-0.0137072,0.0201524,0.025801,3.2767399
 ,-1.0662019,-0.0005247,-1.0759024,2.0661026,0.0001624,-0.0065054,-0.00
 75733,0.0254116,3.2815413,1.0586053,0.0006676,1.0758785,2.0660828,0.00
 04773,0.0209165,-0.010103,0.0287143\Polar=4140.5403785,-4.026066,4174.
 7541998,-0.5923095,-0.1048904,252.3633492\Quadrupole=-6.8194816,-6.838
 9837,13.6584654,-0.0000001,0.,0.\PG=C01 [X(C6H3F3)]\NImag=0\\0.6974631
 5,-0.02703007,0.72193733,0.00064579,0.00065213,0.10864421,-0.13541174,
 0.06938975,0.00011050,0.77788716,-0.00195131,-0.34604479,-0.00010154,-
 0.04008262,0.72471951,-0.00006353,-0.00042383,-0.07010627,-0.00047641,
 0.00055614,0.13777027,0.04842519,-0.09993382,-0.00038180,-0.32540866,-
 0.04238203,0.00084271,0.73972425,-0.03406688,-0.03489686,-0.00066422,-
 0.11369817,-0.15369269,-0.00057753,0.00076908,0.67478484,-0.00032627,-
 0.00027256,0.03400753,0.00041154,-0.00059809,-0.06977479,-0.00055881,0
 .00130744,0.10974302,-0.01936225,0.03473381,0.00031979,-0.04486524,-0.
 02033168,-0.00045909,-0.32549352,0.11282834,0.00008574,0.77805124,0.03
 305733,-0.05488292,0.00011740,0.02029668,0.05747773,0.00011630,0.04246
 275,-0.15416841,-0.00017750,0.04015096,0.72462948,0.00020681,-0.000325
 66,-0.03068979,-0.00022631,0.00035145,0.02917971,0.00047166,-0.0005417
 9,-0.07008534,-0.00028211,0.00016209,0.13766400,-0.06910387,0.03090389
 ,-0.00087625,-0.01983194,-0.03276163,0.00035675,0.04920199,0.03386703,
 0.00055041,-0.13587208,0.00168657,-0.00002413,0.69763584,-0.03115918,0
 .08368606,0.00038473,-0.03380748,-0.05529923,0.00033644,0.09817508,-0.
 03412666,-0.00105801,-0.06840745,-0.34541795,0.00012840,0.02729600,0.7
 2020511,-0.00023695,0.00043118,0.03239496,-0.00000760,-0.00004734,-0.0
 3063128,-0.00016007,0.00008387,0.03426857,0.00021945,-0.00013679,-0.06
 955965,-0.00003003,0.00036535,0.10777391,-0.26763917,0.07670472,-0.000
 01291,0.03562775,0.06519450,-0.00007264,-0.07907935,0.00016442,-0.0000
 6165,0.03551720,-0.06528477,-0.00010286,-0.26744315,-0.07669115,0.0001
 7263,0.70545780,0.14642130,-0.21571981,-0.00012205,0.02549137,-0.02091
 074,-0.00013535,0.00076121,0.00395555,0.00056668,-0.02635804,-0.021303
 14,0.00013757,-0.14636773,-0.21503140,-0.00048244,-0.00005301,0.800671
 55,-0.00014480,-0.00051836,-0.06764884,-0.00024025,0.00029815,0.028726
 44,0.00054496,-0.00011048,-0.03089652,-0.00036480,0.00006219,0.0285086
 4,0.00039965,-0.00005101,-0.06712944,-0.00007829,0.00011260,0.13383663
 ,0.00094952,-0.00320076,-0.00007947,-0.27695213,0.12857934,-0.00006938
 ,-0.01737373,0.01533091,0.00014250,-0.00303169,-0.00345934,-0.00008081
 ,-0.00002724,-0.00125245,0.00004679,0.00217192,-0.00029488,-0.00002698
 ,0.28875852,0.02549124,-0.00984665,-0.00013385,0.12910773,-0.12929806,
 0.00024719,-0.01451141,0.00889238,-0.00017821,-0.00280677,-0.00054280,
 0.00010918,-0.00128268,-0.00144654,-0.00000416,-0.00035972,-0.00539993
 ,0.00015637,-0.13748877,0.12990933,0.00001672,0.00008156,0.00869880,0.
 00006416,-0.00008612,-0.03660999,-0.00013506,0.00008630,0.00903066,0.0
 0008194,-0.00001519,0.00219919,-0.00005703,-0.00004584,-0.00117771,0.0
 0001043,0.00000298,0.00245528,0.00000926,-0.00003830,0.02198894,0.0000
 4218,0.00142130,0.00023372,-0.00291121,0.00337231,-0.00014802,-0.01754
 815,-0.01544424,-0.00003567,-0.27685907,-0.12853725,-0.00003638,0.0008
 4025,0.00326438,0.00000276,0.00211571,0.00022365,-0.00013451,0.0005197
 2,-0.00111363,0.00002622,0.28879814,0.00154481,-0.00111581,0.00005453,
 0.00277960,-0.00049452,-0.00002880,0.01443229,0.00845473,0.00000207,-0
 .12899976,-0.12920815,-0.00000794,-0.02566105,-0.00962541,-0.00000220,
 0.00032529,-0.00564056,-0.00002981,0.00105812,0.00023215,0.00000629,0.
 13754576,0.12997747,-0.00006097,0.00015089,-0.00100022,0.00019331,-0.0
 0020067,0.00219493,-0.00031616,0.00025995,0.00892896,0.00018514,-0.000
 06742,-0.03654420,-0.00011958,-0.00008933,0.00859317,0.00006367,0.0000
 0475,0.00244714,0.00003461,-0.00008374,0.00040093,0.00003982,0.0000023
 3,0.02197098,0.00280290,0.02553639,-0.00006130,-0.00385464,0.00250528,
 0.00010834,-0.00223837,0.00012283,-0.00012325,-0.00383672,-0.00245298,
 0.00005024,0.00289568,-0.02581029,0.00001983,-0.05498892,0.00009121,0.
 00006628,0.00033478,0.00095284,-0.00001864,0.00031843,-0.00096699,-0.0
 0002550,0.05040215,-0.00370556,-0.01143893,0.00002670,0.00275952,0.000
 67253,-0.00015433,0.00017053,0.00047602,0.00023057,-0.00295869,0.00058
 950,-0.00001253,0.00367920,-0.01127607,-0.00014089,-0.00000406,-0.3513
 5312,-0.00003348,-0.00126721,0.00050604,0.00001900,0.00126385,0.000442
 33,0.00004495,0.00001869,0.36794303,0.00001524,0.00020907,0.01003643,0
 .00014162,-0.00016623,0.00170868,-0.00029709,0.00015066,-0.00080514,0.
 00020664,-0.00003854,0.00178673,-0.00017608,-0.00002217,0.00980045,0.0
 0005147,-0.00005213,-0.03775177,0.00001756,-0.00007877,0.00043565,0.00
 005843,0.00001058,0.00042995,-0.00002785,0.00002601,0.02180676,-0.0069
 3489,0.00613597,0.00003840,0.00666529,-0.04643762,-0.00004421,-0.07551
 727,-0.00005617,0.00001213,0.00669290,0.04644314,-0.00001478,-0.007020
 50,-0.00602124,-0.00000040,0.00447439,-0.00005030,-0.00003039,0.002581
 10,0.00144259,0.00000695,0.00260196,-0.00143818,0.00001567,0.00039014,
 -0.00001026,0.00001615,0.06997185,-0.00151439,0.00931239,-0.00014662,-
 0.00797714,-0.04902891,0.00003937,0.00001496,-0.31803108,0.00012667,0.
 00793451,-0.04904246,-0.00000650,0.00155486,0.00928006,-0.00004224,0.0
 0000252,-0.00191543,0.00007547,0.00072656,0.00307269,-0.00000704,-0.00
 072209,0.00306619,-0.00001281,-0.00000554,-0.00010980,-0.00002601,-0.0
 0000498,0.40671631,0.00008519,0.00022031,0.00116774,-0.00004942,0.0000
 8473,0.00212611,0.00001023,-0.00030984,-0.02640156,0.00008429,0.000018
 99,0.00224867,-0.00024969,0.00033482,0.00099727,0.00005470,-0.00022964
 ,0.00294521,-0.00002928,0.00001553,-0.00398876,0.00003896,0.00000401,-
 0.00396130,0.00002421,-0.00006567,0.00058577,0.00000399,-0.00005025,0.
 02032688,0.00680243,-0.00952178,0.00005085,0.00003223,0.00270345,-0.00
 002581,0.00269052,-0.00426462,-0.00002178,-0.01100789,0.01835113,0.000
 00725,-0.25808283,0.10506810,-0.00001568,-0.05809885,0.02969388,-0.000
 01884,0.00005622,0.00018060,0.00000293,0.00201440,-0.00043397,0.000008
 96,0.00389580,0.00001553,0.00000875,-0.00195418,0.00454512,0.00001025,
 0.32263345,-0.00195385,-0.00486543,-0.00004762,0.00258702,0.00275617,-
 0.00000794,-0.01172777,-0.00082826,0.00007447,0.05678105,-0.03091141,-
 0.00002099,0.10518457,-0.13604239,-0.00000229,-0.00892256,0.01630360,0
 .00000799,0.00019916,0.00028265,0.00000210,-0.00108906,0.00363646,0.00
 000090,0.00069620,0.00176875,-0.00000194,0.00356745,-0.00665262,-0.000
 02322,-0.14583335,0.15415802,0.00006206,-0.00004870,0.00087830,0.00000
 921,-0.00001904,0.00307719,0.00001110,-0.00001265,0.00102086,-0.000042
 24,0.00002011,0.00216334,0.00000546,-0.00007498,-0.02623139,-0.0000410
 9,0.00009229,0.00219331,-0.00000654,-0.00000451,0.00057043,0.00000625,
 0.00000319,-0.00396951,-0.00001190,0.00002929,-0.00398295,0.00000055,0
 .00001111,0.00198179,0.00000341,0.00000239,0.02030592,-0.25803345,-0.1
 0513940,0.00001268,-0.01097688,-0.01840802,0.00005130,0.00261710,0.004
 44747,-0.00007489,0.00006712,-0.00271422,0.00003144,0.00680787,0.00934
 568,-0.00001073,-0.05811533,-0.02955868,0.00002798,0.00201299,0.000388
 00,-0.00000789,0.00006765,-0.00018590,-0.00001897,0.00387877,0.0000384
 6,-0.00001484,-0.00195078,-0.00455439,0.00001656,-0.00898130,0.0005111
 2,0.00000374,0.32260622,-0.10513344,-0.13612459,-0.00001958,-0.0568462
 6,-0.03085698,0.00003233,0.01176914,-0.00081957,-0.00002353,-0.0025662
 8,0.00278054,0.00002672,0.00190096,-0.00490557,-0.00002207,0.00892383,
 0.01634344,0.00003035,0.00106933,0.00363875,-0.00000574,-0.00018499,0.
 00027512,-0.00000979,-0.00068765,0.00177974,-0.00001054,-0.00357041,-0
 .00666735,0.00000021,-0.00050411,0.00039446,0.00000150,0.14582988,0.15
 416202,-0.00019928,-0.00015603,-0.02638284,0.00006964,-0.00007143,0.00
 233900,-0.00003169,0.00032828,0.00096375,-0.00003475,-0.00006165,0.003
 12869,0.00022053,-0.00020840,0.00090116,0.00001654,0.00010473,0.002313
 93,0.00004173,-0.00000674,-0.00400340,-0.00005159,-0.00001426,0.000509
 16,-0.00000043,0.00003040,-0.00405057,-0.00000406,0.00003885,0.0019721
 8,-0.00001027,0.00001615,0.00199271,-0.00001638,0.00000013,0.02031622\
 \0.00012534,0.00007000,0.,0.00007306,-0.00004350,0.,0.,-0.00014631,0.,
 -0.00007306,-0.00004350,0.,-0.00012534,0.00007000,0.,0.,0.00008604,0.,
 -0.00000361,0.00000362,0.,0.00000361,0.00000362,0.,0.,-0.00000449,0.,0
 .,0.00014485,0.,0.00012313,-0.00007016,0.,-0.00012313,-0.00007016,0.\\
 \@


 IN THE WOODS WE RETURN TO REASON AND FAITH.

                                 -- EMERSON
 Job cpu time:       0 days  0 hours  8 minutes 19.9 seconds.
 Elapsed time:       0 days  0 hours  8 minutes 20.7 seconds.
 File lengths (MBytes):  RWF=    135 Int=      0 D2E=      0 Chk=      6 Scr=      1
 Normal termination of Gaussian 16 at Thu Jan 30 13:16:08 2025.
