1 3 5-DFB SP                                                            
SP        RPBE1PBE                                                    6-311++G(d,p)       
Number of atoms                            I               12
Info1-9                                    I   N=           9
          19          19           0           0           0         110
           1          18        -302
Full Title                                 C   N=           1
1 3 5-DFB SP
Route                                      C   N=           4
#p PBE1PBE/6-311++G(d,p) density=current nosymm 
Charge                                     I                0
Multiplicity                               I                1
Number of electrons                        I               66
Number of alpha electrons                  I               33
Number of beta electrons                   I               33
Number of basis functions                  I              219
Number of independent functions            I              219
Number of point charges in /Mol/           I                0
Number of translation vectors              I                0
Atomic numbers                             I   N=          12
           6           6           6           6           6           6
           1           1           1           9           9           9
Nuclear charges                            R   N=          12
  6.00000000E+00  6.00000000E+00  6.00000000E+00  6.00000000E+00  6.00000000E+00
  6.00000000E+00  1.00000000E+00  1.00000000E+00  1.00000000E+00  9.00000000E+00
  9.00000000E+00  9.00000000E+00
Current cartesian coordinates              R   N=          36
  2.22703949E+00  1.28589415E+00  0.00000000E+00  2.30074607E+00 -1.32838321E+00
  0.00000000E+00  0.00000000E+00 -2.57175793E+00  0.00000000E+00 -2.30074607E+00
 -1.32838321E+00  0.00000000E+00 -2.22703949E+00  1.28589415E+00  0.00000000E+00
  0.00000000E+00  2.65702205E+00  0.00000000E+00  4.07157264E+00 -2.35055543E+00
  0.00000000E+00 -4.07157264E+00 -2.35055543E+00  0.00000000E+00  0.00000000E+00
  4.70166536E+00  0.00000000E+00  0.00000000E+00 -5.09956368E+00  0.00000000E+00
 -4.41644126E+00  2.54936159E+00  0.00000000E+00  4.41644126E+00  2.54936159E+00
  1.88972612E-09
Number of symbols in /Mol/                 I                0
Force Field                                I                0
Atom Types                                 C   N=          12
                                                            
                                                            
                        
Int Atom Types                             I   N=          12
           0           0           0           0           0           0
           0           0           0           0           0           0
MM charges                                 R   N=          12
  0.00000000E+00  0.00000000E+00  0.00000000E+00  0.00000000E+00  0.00000000E+00
  0.00000000E+00  0.00000000E+00  0.00000000E+00  0.00000000E+00  0.00000000E+00
  0.00000000E+00  0.00000000E+00
Integer atomic weights                     I   N=          12
          12          12          12          12          12          12
           1           1           1          19          19          19
Real atomic weights                        R   N=          12
  1.20000000E+01  1.20000000E+01  1.20000000E+01  1.20000000E+01  1.20000000E+01
  1.20000000E+01  1.00782504E+00  1.00782504E+00  1.00782504E+00  1.89984032E+01
  1.89984032E+01  1.89984032E+01
Atom fragment info                         I   N=          12
           0           0           0           0           0           0
           0           0           0           0           0           0
Atom residue num                           I   N=          12
           0           0           0           0           0           0
           0           0           0           0           0           0
Nuclear spins                              I   N=          12
           0           0           0           0           0           0
           1           1           1           1           1           1
Nuclear ZEff                               R   N=          12
 -3.60000000E+00 -3.60000000E+00 -3.60000000E+00 -3.60000000E+00 -3.60000000E+00
 -3.60000000E+00 -1.00000000E+00 -1.00000000E+00 -1.00000000E+00 -6.75000000E+00
 -6.75000000E+00 -6.75000000E+00
Nuclear ZNuc                               R   N=          12
  6.00000000E+00  6.00000000E+00  6.00000000E+00  6.00000000E+00  6.00000000E+00
  6.00000000E+00  1.00000000E+00  1.00000000E+00  1.00000000E+00  9.00000000E+00
  9.00000000E+00  9.00000000E+00
Nuclear QMom                               R   N=          12
  0.00000000E+00  0.00000000E+00  0.00000000E+00  0.00000000E+00  0.00000000E+00
  0.00000000E+00  0.00000000E+00  0.00000000E+00  0.00000000E+00  0.00000000E+00
  0.00000000E+00  0.00000000E+00
Nuclear GFac                               R   N=          12
  0.00000000E+00  0.00000000E+00  0.00000000E+00  0.00000000E+00  0.00000000E+00
  0.00000000E+00  2.79284600E+00  2.79284600E+00  2.79284600E+00  2.62886700E+00
  2.62886700E+00  2.62886700E+00
MicOpt                                     I   N=          12
          -1          -1          -1          -1          -1          -1
          -1          -1          -1          -1          -1          -1
Number of residues                         I                0
Number of secondary structures             I                0
Number of contracted shells                I               69
Number of primitive shells                 I              138
Pure/Cartesian d shells                    I                0
Pure/Cartesian f shells                    I                0
Highest angular momentum                   I                2
Largest degree of contraction              I                6
Shell types                                I   N=          69
           0          -1          -1          -1          -1          -2
           0          -1          -1          -1          -1          -2
           0          -1          -1          -1          -1          -2
           0          -1          -1          -1          -1          -2
           0          -1          -1          -1          -1          -2
           0          -1          -1          -1          -1          -2
           0           0           0           0           1           0
           0           0           0           1           0           0
           0           0           1           0          -1          -1
          -1          -1          -2           0          -1          -1
          -1          -1          -2           0          -1          -1
          -1          -1          -2
Number of primitives per shell             I   N=          69
           6           3           1           1           1           1
           6           3           1           1           1           1
           6           3           1           1           1           1
           6           3           1           1           1           1
           6           3           1           1           1           1
           6           3           1           1           1           1
           3           1           1           1           1           3
           1           1           1           1           3           1
           1           1           1           6           3           1
           1           1           1           6           3           1
           1           1           1           6           3           1
           1           1           1
Shell to atom map                          I   N=          69
           1           1           1           1           1           1
           2           2           2           2           2           2
           3           3           3           3           3           3
           4           4           4           4           4           4
           5           5           5           5           5           5
           6           6           6           6           6           6
           7           7           7           7           7           8
           8           8           8           8           9           9
           9           9           9          10          10          10
          10          10          10          11          11          11
          11          11          11          12          12          12
          12          12          12
Primitive exponents                        R   N=         138
  4.56324000E+03  6.82024000E+02  1.54973000E+02  4.44553000E+01  1.30290000E+01
  1.82773000E+00  2.09642000E+01  4.80331000E+00  1.45933000E+00  4.83456000E-01
  1.45585000E-01  4.38000000E-02  6.26000000E-01  4.56324000E+03  6.82024000E+02
  1.54973000E+02  4.44553000E+01  1.30290000E+01  1.82773000E+00  2.09642000E+01
  4.80331000E+00  1.45933000E+00  4.83456000E-01  1.45585000E-01  4.38000000E-02
  6.26000000E-01  4.56324000E+03  6.82024000E+02  1.54973000E+02  4.44553000E+01
  1.30290000E+01  1.82773000E+00  2.09642000E+01  4.80331000E+00  1.45933000E+00
  4.83456000E-01  1.45585000E-01  4.38000000E-02  6.26000000E-01  4.56324000E+03
  6.82024000E+02  1.54973000E+02  4.44553000E+01  1.30290000E+01  1.82773000E+00
  2.09642000E+01  4.80331000E+00  1.45933000E+00  4.83456000E-01  1.45585000E-01
  4.38000000E-02  6.26000000E-01  4.56324000E+03  6.82024000E+02  1.54973000E+02
  4.44553000E+01  1.30290000E+01  1.82773000E+00  2.09642000E+01  4.80331000E+00
  1.45933000E+00  4.83456000E-01  1.45585000E-01  4.38000000E-02  6.26000000E-01
  4.56324000E+03  6.82024000E+02  1.54973000E+02  4.44553000E+01  1.30290000E+01
  1.82773000E+00  2.09642000E+01  4.80331000E+00  1.45933000E+00  4.83456000E-01
  1.45585000E-01  4.38000000E-02  6.26000000E-01  3.38650000E+01  5.09479000E+00
  1.15879000E+00  3.25840000E-01  1.02741000E-01  3.60000000E-02  7.50000000E-01
  3.38650000E+01  5.09479000E+00  1.15879000E+00  3.25840000E-01  1.02741000E-01
  3.60000000E-02  7.50000000E-01  3.38650000E+01  5.09479000E+00  1.15879000E+00
  3.25840000E-01  1.02741000E-01  3.60000000E-02  7.50000000E-01  1.14271000E+04
  1.72235000E+03  3.95746000E+02  1.15139000E+02  3.36026000E+01  4.91901000E+00
  5.54441000E+01  1.26323000E+01  3.71756000E+00  1.16545000E+00  3.21892000E-01
  1.07600000E-01  1.75000000E+00  1.14271000E+04  1.72235000E+03  3.95746000E+02
  1.15139000E+02  3.36026000E+01  4.91901000E+00  5.54441000E+01  1.26323000E+01
  3.71756000E+00  1.16545000E+00  3.21892000E-01  1.07600000E-01  1.75000000E+00
  1.14271000E+04  1.72235000E+03  3.95746000E+02  1.15139000E+02  3.36026000E+01
  4.91901000E+00  5.54441000E+01  1.26323000E+01  3.71756000E+00  1.16545000E+00
  3.21892000E-01  1.07600000E-01  1.75000000E+00
Contraction coefficients                   R   N=         138
  1.96665025E-03  1.52306019E-02  7.61269097E-02  2.60801033E-01  6.16462078E-01
  2.21006028E-01  1.14660081E-01  9.19999648E-01 -3.03068213E-03  1.00000000E+00
  1.00000000E+00  1.00000000E+00  1.00000000E+00  1.96665025E-03  1.52306019E-02
  7.61269097E-02  2.60801033E-01  6.16462078E-01  2.21006028E-01  1.14660081E-01
  9.19999648E-01 -3.03068213E-03  1.00000000E+00  1.00000000E+00  1.00000000E+00
  1.00000000E+00  1.96665025E-03  1.52306019E-02  7.61269097E-02  2.60801033E-01
  6.16462078E-01  2.21006028E-01  1.14660081E-01  9.19999648E-01 -3.03068213E-03
  1.00000000E+00  1.00000000E+00  1.00000000E+00  1.00000000E+00  1.96665025E-03
  1.52306019E-02  7.61269097E-02  2.60801033E-01  6.16462078E-01  2.21006028E-01
  1.14660081E-01  9.19999648E-01 -3.03068213E-03  1.00000000E+00  1.00000000E+00
  1.00000000E+00  1.00000000E+00  1.96665025E-03  1.52306019E-02  7.61269097E-02
  2.60801033E-01  6.16462078E-01  2.21006028E-01  1.14660081E-01  9.19999648E-01
 -3.03068213E-03  1.00000000E+00  1.00000000E+00  1.00000000E+00  1.00000000E+00
  1.96665025E-03  1.52306019E-02  7.61269097E-02  2.60801033E-01  6.16462078E-01
  2.21006028E-01  1.14660081E-01  9.19999648E-01 -3.03068213E-03  1.00000000E+00
  1.00000000E+00  1.00000000E+00  1.00000000E+00  2.54938145E-02  1.90373109E-01
  8.52161486E-01  1.00000000E+00  1.00000000E+00  1.00000000E+00  1.00000000E+00
  2.54938145E-02  1.90373109E-01  8.52161486E-01  1.00000000E+00  1.00000000E+00
  1.00000000E+00  1.00000000E+00  2.54938145E-02  1.90373109E-01  8.52161486E-01
  1.00000000E+00  1.00000000E+00  1.00000000E+00  1.00000000E+00  1.80093016E-03
  1.37419012E-02  6.81334059E-02  2.33325020E-01  5.89086051E-01  2.99505026E-01
  1.14536016E-01  9.20512125E-01 -3.37804046E-03  1.00000000E+00  1.00000000E+00
  1.00000000E+00  1.00000000E+00  1.80093016E-03  1.37419012E-02  6.81334059E-02
  2.33325020E-01  5.89086051E-01  2.99505026E-01  1.14536016E-01  9.20512125E-01
 -3.37804046E-03  1.00000000E+00  1.00000000E+00  1.00000000E+00  1.00000000E+00
  1.80093016E-03  1.37419012E-02  6.81334059E-02  2.33325020E-01  5.89086051E-01
  2.99505026E-01  1.14536016E-01  9.20512125E-01 -3.37804046E-03  1.00000000E+00
  1.00000000E+00  1.00000000E+00  1.00000000E+00
P(S=P) Contraction coefficients            R   N=         138
  0.00000000E+00  0.00000000E+00  0.00000000E+00  0.00000000E+00  0.00000000E+00
  0.00000000E+00  4.02486927E-02  2.37593957E-01  8.15853851E-01  1.00000000E+00
  1.00000000E+00  1.00000000E+00  0.00000000E+00  0.00000000E+00  0.00000000E+00
  0.00000000E+00  0.00000000E+00  0.00000000E+00  0.00000000E+00  4.02486927E-02
  2.37593957E-01  8.15853851E-01  1.00000000E+00  1.00000000E+00  1.00000000E+00
  0.00000000E+00  0.00000000E+00  0.00000000E+00  0.00000000E+00  0.00000000E+00
  0.00000000E+00  0.00000000E+00  4.02486927E-02  2.37593957E-01  8.15853851E-01
  1.00000000E+00  1.00000000E+00  1.00000000E+00  0.00000000E+00  0.00000000E+00
  0.00000000E+00  0.00000000E+00  0.00000000E+00  0.00000000E+00  0.00000000E+00
  4.02486927E-02  2.37593957E-01  8.15853851E-01  1.00000000E+00  1.00000000E+00
  1.00000000E+00  0.00000000E+00  0.00000000E+00  0.00000000E+00  0.00000000E+00
  0.00000000E+00  0.00000000E+00  0.00000000E+00  4.02486927E-02  2.37593957E-01
  8.15853851E-01  1.00000000E+00  1.00000000E+00  1.00000000E+00  0.00000000E+00
  0.00000000E+00  0.00000000E+00  0.00000000E+00  0.00000000E+00  0.00000000E+00
  0.00000000E+00  4.02486927E-02  2.37593957E-01  8.15853851E-01  1.00000000E+00
  1.00000000E+00  1.00000000E+00  0.00000000E+00  0.00000000E+00  0.00000000E+00
  0.00000000E+00  0.00000000E+00  0.00000000E+00  0.00000000E+00  0.00000000E+00
  0.00000000E+00  0.00000000E+00  0.00000000E+00  0.00000000E+00  0.00000000E+00
  0.00000000E+00  0.00000000E+00  0.00000000E+00  0.00000000E+00  0.00000000E+00
  0.00000000E+00  0.00000000E+00  0.00000000E+00  0.00000000E+00  0.00000000E+00
  0.00000000E+00  0.00000000E+00  0.00000000E+00  0.00000000E+00  0.00000000E+00
  3.54608874E-02  2.37450915E-01  8.20457708E-01  1.00000000E+00  1.00000000E+00
  1.00000000E+00  0.00000000E+00  0.00000000E+00  0.00000000E+00  0.00000000E+00
  0.00000000E+00  0.00000000E+00  0.00000000E+00  3.54608874E-02  2.37450915E-01
  8.20457708E-01  1.00000000E+00  1.00000000E+00  1.00000000E+00  0.00000000E+00
  0.00000000E+00  0.00000000E+00  0.00000000E+00  0.00000000E+00  0.00000000E+00
  0.00000000E+00  3.54608874E-02  2.37450915E-01  8.20457708E-01  1.00000000E+00
  1.00000000E+00  1.00000000E+00  0.00000000E+00
Coordinates of each shell                  R   N=         207
  2.22703949E+00  1.28589415E+00  0.00000000E+00  2.22703949E+00  1.28589415E+00
  0.00000000E+00  2.22703949E+00  1.28589415E+00  0.00000000E+00  2.22703949E+00
  1.28589415E+00  0.00000000E+00  2.22703949E+00  1.28589415E+00  0.00000000E+00
  2.22703949E+00  1.28589415E+00  0.00000000E+00  2.30074607E+00 -1.32838321E+00
  0.00000000E+00  2.30074607E+00 -1.32838321E+00  0.00000000E+00  2.30074607E+00
 -1.32838321E+00  0.00000000E+00  2.30074607E+00 -1.32838321E+00  0.00000000E+00
  2.30074607E+00 -1.32838321E+00  0.00000000E+00  2.30074607E+00 -1.32838321E+00
  0.00000000E+00  0.00000000E+00 -2.57175793E+00  0.00000000E+00  0.00000000E+00
 -2.57175793E+00  0.00000000E+00  0.00000000E+00 -2.57175793E+00  0.00000000E+00
  0.00000000E+00 -2.57175793E+00  0.00000000E+00  0.00000000E+00 -2.57175793E+00
  0.00000000E+00  0.00000000E+00 -2.57175793E+00  0.00000000E+00 -2.30074607E+00
 -1.32838321E+00  0.00000000E+00 -2.30074607E+00 -1.32838321E+00  0.00000000E+00
 -2.30074607E+00 -1.32838321E+00  0.00000000E+00 -2.30074607E+00 -1.32838321E+00
  0.00000000E+00 -2.30074607E+00 -1.32838321E+00  0.00000000E+00 -2.30074607E+00
 -1.32838321E+00  0.00000000E+00 -2.22703949E+00  1.28589415E+00  0.00000000E+00
 -2.22703949E+00  1.28589415E+00  0.00000000E+00 -2.22703949E+00  1.28589415E+00
  0.00000000E+00 -2.22703949E+00  1.28589415E+00  0.00000000E+00 -2.22703949E+00
  1.28589415E+00  0.00000000E+00 -2.22703949E+00  1.28589415E+00  0.00000000E+00
  0.00000000E+00  2.65702205E+00  0.00000000E+00  0.00000000E+00  2.65702205E+00
  0.00000000E+00  0.00000000E+00  2.65702205E+00  0.00000000E+00  0.00000000E+00
  2.65702205E+00  0.00000000E+00  0.00000000E+00  2.65702205E+00  0.00000000E+00
  0.00000000E+00  2.65702205E+00  0.00000000E+00  4.07157264E+00 -2.35055543E+00
  0.00000000E+00  4.07157264E+00 -2.35055543E+00  0.00000000E+00  4.07157264E+00
 -2.35055543E+00  0.00000000E+00  4.07157264E+00 -2.35055543E+00  0.00000000E+00
  4.07157264E+00 -2.35055543E+00  0.00000000E+00 -4.07157264E+00 -2.35055543E+00
  0.00000000E+00 -4.07157264E+00 -2.35055543E+00  0.00000000E+00 -4.07157264E+00
 -2.35055543E+00  0.00000000E+00 -4.07157264E+00 -2.35055543E+00  0.00000000E+00
 -4.07157264E+00 -2.35055543E+00  0.00000000E+00  0.00000000E+00  4.70166536E+00
  0.00000000E+00  0.00000000E+00  4.70166536E+00  0.00000000E+00  0.00000000E+00
  4.70166536E+00  0.00000000E+00  0.00000000E+00  4.70166536E+00  0.00000000E+00
  0.00000000E+00  4.70166536E+00  0.00000000E+00  0.00000000E+00 -5.09956368E+00
  0.00000000E+00  0.00000000E+00 -5.09956368E+00  0.00000000E+00  0.00000000E+00
 -5.09956368E+00  0.00000000E+00  0.00000000E+00 -5.09956368E+00  0.00000000E+00
  0.00000000E+00 -5.09956368E+00  0.00000000E+00  0.00000000E+00 -5.09956368E+00
  0.00000000E+00 -4.41644126E+00  2.54936159E+00  0.00000000E+00 -4.41644126E+00
  2.54936159E+00  0.00000000E+00 -4.41644126E+00  2.54936159E+00  0.00000000E+00
 -4.41644126E+00  2.54936159E+00  0.00000000E+00 -4.41644126E+00  2.54936159E+00
  0.00000000E+00 -4.41644126E+00  2.54936159E+00  0.00000000E+00  4.41644126E+00
  2.54936159E+00  1.88972612E-09  4.41644126E+00  2.54936159E+00  1.88972612E-09
  4.41644126E+00  2.54936159E+00  1.88972612E-09  4.41644126E+00  2.54936159E+00
  1.88972612E-09  4.41644126E+00  2.54936159E+00  1.88972612E-09  4.41644126E+00
  2.54936159E+00  1.88972612E-09
Num ILSW                                   I              100
ILSW                                       I   N=         100
           0           0           0           0           2           0
           0           0           0           0        1009          -1
           5           0           0           0           0           0
           0           0           0           0           0           0
           1           1           0           0           0           0
           0           0      100000           0          -1           0
           0           0           0           0           0           0
           0           0           0           1           0           0
           0 -2000000000           1           0           0           0
           0           0           4          52           0           0
           0           0          13           0           0           0
           0           0           0          12           0           1
           0           0           0           0           0           0
           0           0           0           0           0           0
           0           0           0           0           0           0
           0           0           0           0           0           0
           0           0           0           0
Num RLSW                                   I               52
RLSW                                       R   N=          52
  7.50000000E-01  7.50000000E-01  1.00000000E+00  1.00000000E+00  2.50000000E-01
  0.00000000E+00  0.00000000E+00  1.00000000E+00  0.00000000E+00  0.00000000E+00
  0.00000000E+00  0.00000000E+00  1.00000000E+00  0.00000000E+00  0.00000000E+00
  0.00000000E+00  0.00000000E+00  1.00000000E+00  0.00000000E+00  0.00000000E+00
  0.00000000E+00  0.00000000E+00  1.00000000E+00  0.00000000E+00  0.00000000E+00
  0.00000000E+00  0.00000000E+00  1.00000000E+00  0.00000000E+00  0.00000000E+00
  0.00000000E+00  0.00000000E+00  1.00000000E+00  0.00000000E+00  0.00000000E+00
  0.00000000E+00  0.00000000E+00  0.00000000E+00  1.00000000E+00  1.00000000E+00
  0.00000000E+00  1.00000000E+00  0.00000000E+00  0.00000000E+00  0.00000000E+00
  0.00000000E+00  0.00000000E+00  0.00000000E+00  0.00000000E+00  0.00000000E+00
  0.00000000E+00  0.00000000E+00
MxBond                                     I                3
NBond                                      I   N=          12
           3           3           3           3           3           3
           1           1           1           1           1           1
IBond                                      I   N=          36
           2           6          12           1           3           7
           2           4          10           3           5           8
           4           6          11           1           5           9
           2           0           0           4           0           0
           6           0           0           3           0           0
           5           0           0           1           0           0
RBond                                      R   N=          36
  1.50000000E+00  1.50000000E+00  1.00000000E+00  1.50000000E+00  1.50000000E+00
  1.00000000E+00  1.50000000E+00  1.50000000E+00  1.00000000E+00  1.50000000E+00
  1.50000000E+00  1.00000000E+00  1.50000000E+00  1.50000000E+00  1.00000000E+00
  1.50000000E+00  1.50000000E+00  1.00000000E+00  1.00000000E+00  0.00000000E+00
  0.00000000E+00  1.00000000E+00  0.00000000E+00  0.00000000E+00  1.00000000E+00
  0.00000000E+00  0.00000000E+00  1.00000000E+00  0.00000000E+00  0.00000000E+00
  1.00000000E+00  0.00000000E+00  0.00000000E+00  1.00000000E+00  0.00000000E+00
  0.00000000E+00
Virial Ratio                               R      2.002918774549638E+00
SCF Energy                                 R     -5.295556567518095E+02
Total Energy                               R     -5.295556567518095E+02
RMS Density                                R      1.968250021797892E-09
Job Status                                 I                1
Nuclear derivative order                   I                0
External E-field                           R   N=          35
  0.00000000E+00  0.00000000E+00  0.00000000E+00  0.00000000E+00  0.00000000E+00
  0.00000000E+00  0.00000000E+00  0.00000000E+00  0.00000000E+00  0.00000000E+00
  0.00000000E+00  0.00000000E+00  0.00000000E+00  0.00000000E+00  0.00000000E+00
  0.00000000E+00  0.00000000E+00  0.00000000E+00  0.00000000E+00  0.00000000E+00
  0.00000000E+00  0.00000000E+00  0.00000000E+00  0.00000000E+00  0.00000000E+00
  0.00000000E+00  0.00000000E+00  0.00000000E+00  0.00000000E+00  0.00000000E+00
  0.00000000E+00  0.00000000E+00  0.00000000E+00  0.00000000E+00  0.00000000E+00
IOpCl                                      I                0
IROHF                                      I                0
Alpha Orbital Energies                     R   N=         219
 -2.48033322E+01 -2.48033282E+01 -2.48033276E+01 -1.03443759E+01 -1.03443730E+01
 -1.03443635E+01 -1.02556739E+01 -1.02556562E+01 -1.02556454E+01 -1.28952688E+00
 -1.28876048E+00 -1.28875923E+00 -9.28112426E-01 -8.11194511E-01 -8.11166689E-01
 -6.82007031E-01 -6.81998972E-01 -6.17774925E-01 -5.81870785E-01 -5.49663997E-01
 -5.43705710E-01 -5.43682653E-01 -5.24724692E-01 -5.05553414E-01 -5.05552064E-01
 -4.74937114E-01 -4.74919413E-01 -4.21715323E-01 -4.21709167E-01 -4.08153487E-01
 -3.86942275E-01 -2.86932213E-01 -2.86908844E-01 -2.72269859E-02 -2.72214772E-02
  3.23973100E-03  2.18229297E-02  2.18267171E-02  3.46812123E-02  4.97464310E-02
  4.97514042E-02  5.49154791E-02  8.62093007E-02  9.55249225E-02  9.55260695E-02
  1.15407565E-01  1.27432118E-01  1.27839219E-01  1.27841912E-01  1.28658392E-01
  1.35488132E-01  1.37692224E-01  1.37703112E-01  1.37781840E-01  1.37785908E-01
  1.54038313E-01  1.54043079E-01  1.81076389E-01  1.81094408E-01  1.87489509E-01
  2.06220189E-01  2.06224846E-01  2.23743224E-01  2.23764748E-01  2.61430553E-01
  2.65020952E-01  2.71334088E-01  2.72360364E-01  2.76797684E-01  2.76815231E-01
  3.37584472E-01  3.37585392E-01  3.45906085E-01  3.52559007E-01  3.60038260E-01
  3.60042452E-01  3.69913545E-01  3.69926293E-01  4.09859738E-01  4.09889582E-01
  4.30320209E-01  4.33050680E-01  4.33069274E-01  4.60104723E-01  4.60132859E-01
  4.70339698E-01  5.06795124E-01  5.41629967E-01  5.66597916E-01  5.66601241E-01
  5.69596163E-01  5.69602220E-01  5.83780402E-01  6.16536707E-01  6.16543827E-01
  6.61655379E-01  6.71198930E-01  6.85703312E-01  6.85741927E-01  7.19801826E-01
  7.82468944E-01  7.82493091E-01  7.99300490E-01  8.41025949E-01  8.41047772E-01
  8.98781947E-01  9.09654318E-01  9.09665731E-01  9.11436882E-01  9.58707436E-01
  9.58731132E-01  9.61978668E-01  1.02938688E+00  1.02939830E+00  1.04207661E+00
  1.06567421E+00  1.06571345E+00  1.19201799E+00  1.19203506E+00  1.24267877E+00
  1.34683183E+00  1.39784270E+00  1.42635193E+00  1.42636315E+00  1.42997742E+00
  1.44566827E+00  1.44568105E+00  1.46615978E+00  1.52969994E+00  1.52977176E+00
  1.53824851E+00  1.53833658E+00  1.54747020E+00  1.56926988E+00  1.58335729E+00
  1.58959793E+00  1.58959810E+00  1.64557808E+00  1.64558394E+00  1.83186757E+00
  1.83195874E+00  1.88407198E+00  1.88412245E+00  1.91476624E+00  1.91482946E+00
  1.95842178E+00  1.95846683E+00  1.95888383E+00  2.03550188E+00  2.05846375E+00
  2.05848417E+00  2.07565666E+00  2.08794779E+00  2.08796502E+00  2.13271668E+00
  2.28021729E+00  2.28025743E+00  2.29945373E+00  2.45813770E+00  2.45814916E+00
  2.57159732E+00  2.62644598E+00  2.62898514E+00  2.72247271E+00  2.72248082E+00
  2.74009065E+00  2.74380337E+00  2.74382306E+00  2.77918804E+00  2.77928125E+00
  2.87272192E+00  2.87274037E+00  3.07255317E+00  3.12680199E+00  3.15438471E+00
  3.20434122E+00  3.20436182E+00  3.36746463E+00  3.36748381E+00  3.62445339E+00
  3.63615538E+00  3.63617917E+00  3.78436811E+00  3.78491724E+00  3.78491737E+00
  3.79334180E+00  3.84547905E+00  3.86520719E+00  3.86523327E+00  3.99430395E+00
  3.99431072E+00  3.99871175E+00  4.13058177E+00  4.13848496E+00  4.13859408E+00
  4.16657222E+00  4.16663984E+00  4.81711199E+00  4.87597763E+00  4.89274790E+00
  4.89275142E+00  6.33938694E+00  6.35666922E+00  6.35667094E+00  6.47649234E+00
  6.47662580E+00  6.47664550E+00  6.73249575E+00  6.82737763E+00  6.82738775E+00
  2.35944072E+01  2.39764550E+01  2.39764887E+01  2.41753978E+01  2.41754394E+01
  2.42720323E+01  6.69339135E+01  6.69438860E+01  6.69438860E+01
Alpha MO coefficients                      R   N=       47961
 -3.51643963E-06  1.43655141E-05 -2.97270727E-05 -5.17437900E-05 -1.06057776E-14
 -2.23117802E-05  7.92154782E-05  2.60162013E-04  1.45872224E-14 -4.55192804E-03
 -8.95962169E-04  1.29104760E-03 -8.23871096E-13 -3.34593756E-02  6.15639619E-03
  2.53340851E-03  4.78896281E-13  2.29517676E-05 -1.13007585E-13 -3.63255475E-14
  7.21198559E-05 -5.81480966E-05 -5.13581273E-06  2.28743382E-05  5.80338646E-06
 -4.33007391E-05 -9.80817400E-15 -2.22410635E-04 -7.11508960E-06  1.91131341E-04
  3.16321736E-14  5.15313821E-03 -2.83713793E-03  3.45942826E-03  1.48668404E-13
  4.68405658E-02 -1.19550883E-02  2.82831430E-03 -5.93655446E-13 -3.83599147E-05
 -1.88095096E-14  2.84708614E-14  2.23423793E-05 -1.03069598E-04  2.51064997E-05
 -1.06462173E-04 -8.40041688E-14 -1.43928600E-04  1.12566513E-14  6.80252483E-04
  5.23031012E-13 -1.01303888E-04 -3.87361986E-14 -2.39988412E-03  4.06906309E-12
 -7.91997458E-03  4.79333264E-14 -6.55572142E-02  2.45713272E-12 -9.66285301E-03
  5.38847192E-13 -1.51965051E-04 -8.76230313E-15  8.07260445E-15  1.79929009E-06
  2.55663592E-13 -5.13581274E-06  2.28743382E-05 -5.80338661E-06 -4.33007391E-05
  3.98851887E-15 -2.22410635E-04  7.11509038E-06  1.91131341E-04 -1.42941743E-14
  5.15313823E-03  2.83713794E-03  3.45942826E-03  1.40378388E-14  4.68405659E-02
  1.19550883E-02  2.82831431E-03 -3.59070318E-13 -3.83599148E-05 -7.55494047E-16
  2.81735057E-15  2.23423795E-05  1.03069598E-04 -3.51643955E-06  1.43655138E-05
  2.97270722E-05 -5.17437898E-05  5.01744526E-15 -2.23117783E-05 -7.92154777E-05
  2.60162014E-04 -1.76391654E-14 -4.55192804E-03  8.95962152E-04  1.29104761E-03
 -2.56651165E-14 -3.34593757E-02 -6.15639621E-03  2.53340850E-03  3.15528836E-13
  2.29517671E-05  2.74223220E-16 -1.35890204E-14  7.21198561E-05  5.81480967E-05
 -2.64186033E-06  1.03421053E-05 -9.64037923E-14 -1.85685319E-05  2.03300223E-15
 -6.71663436E-05  4.51005202E-13  1.20876472E-04 -1.15351660E-14 -2.56866927E-04
  4.60456415E-12 -2.29945927E-04  2.44509505E-13  3.12459354E-02 -1.38098622E-11
 -4.92754128E-03 -3.73125970E-13  6.39246444E-06  1.52651201E-14 -2.26902359E-14
 -1.45032701E-05 -9.02853346E-14 -7.37371282E-05  6.73864071E-04  1.37625757E-03
  2.54658688E-03 -1.93334632E-05 -3.79851579E-06 -9.27490912E-15 -7.37371283E-05
  6.73864073E-04  1.37625758E-03  2.54658689E-03  1.93334633E-05 -3.79851570E-06
  2.13409462E-15 -2.14598390E-05  5.46638567E-05 -2.45933933E-04 -2.84060304E-04
 -4.29677564E-14  3.35773071E-05 -1.85562356E-14  5.45476294E-01  4.69557597E-01