 Entering Gaussian System, Link 0=g16
 Initial command:
 /sw/cluster/pub/apps//g16/l1.exe "/data/natrosa/28473/Gau-5587.inp" -scrdir="/data/natrosa/28473/"
 Entering Link 1 = /sw/cluster/pub/apps//g16/l1.exe PID=      5588.
  
 Copyright (c) 1988,1990,1992,1993,1995,1998,2003,2009,2016,
            Gaussian, Inc.  All Rights Reserved.
  
 This is part of the Gaussian(R) 16 program.  It is based on
 the Gaussian(R) 09 system (copyright 2009, Gaussian, Inc.),
 the Gaussian(R) 03 system (copyright 2003, Gaussian, Inc.),
 the Gaussian(R) 98 system (copyright 1998, Gaussian, Inc.),
 the Gaussian(R) 94 system (copyright 1995, Gaussian, Inc.),
 the Gaussian 92(TM) system (copyright 1992, Gaussian, Inc.),
 the Gaussian 90(TM) system (copyright 1990, Gaussian, Inc.),
 the Gaussian 88(TM) system (copyright 1988, Gaussian, Inc.),
 the Gaussian 86(TM) system (copyright 1986, Carnegie Mellon
 University), and the Gaussian 82(TM) system (copyright 1983,
 Carnegie Mellon University). Gaussian is a federally registered
 trademark of Gaussian, Inc.
  
 This software contains proprietary and confidential information,
 including trade secrets, belonging to Gaussian, Inc.
  
 This software is provided under written license and may be
 used, copied, transmitted, or stored only in accord with that
 written license.
  
 The following legend is applicable only to US Government
 contracts under FAR:
  
                    RESTRICTED RIGHTS LEGEND
  
 Use, reproduction and disclosure by the US Government is
 subject to restrictions as set forth in subparagraphs (a)
 and (c) of the Commercial Computer Software - Restricted
 Rights clause in FAR 52.227-19.
  
 Gaussian, Inc.
 340 Quinnipiac St., Bldg. 40, Wallingford CT 06492
  
  
 ---------------------------------------------------------------
 Warning -- This program may not be used in any manner that
 competes with the business of Gaussian, Inc. or will provide
 assistance to any competitor of Gaussian, Inc.  The licensee
 of this program is prohibited from giving any competitor of
 Gaussian, Inc. access to this program.  By using this program,
 the user acknowledges that Gaussian, Inc. is engaged in the
 business of creating and licensing software in the field of
 computational chemistry and represents and warrants to the
 licensee that it is not a competitor of Gaussian, Inc. and that
 it will not use this program in any manner prohibited above.
 ---------------------------------------------------------------
  

 Cite this work as:
 Gaussian 16, Revision A.03,
 M. J. Frisch, G. W. Trucks, H. B. Schlegel, G. E. Scuseria, 
 M. A. Robb, J. R. Cheeseman, G. Scalmani, V. Barone, 
 G. A. Petersson, H. Nakatsuji, X. Li, M. Caricato, A. V. Marenich, 
 J. Bloino, B. G. Janesko, R. Gomperts, B. Mennucci, H. P. Hratchian, 
 J. V. Ortiz, A. F. Izmaylov, J. L. Sonnenberg, D. Williams-Young, 
 F. Ding, F. Lipparini, F. Egidi, J. Goings, B. Peng, A. Petrone, 
 T. Henderson, D. Ranasinghe, V. G. Zakrzewski, J. Gao, N. Rega, 
 G. Zheng, W. Liang, M. Hada, M. Ehara, K. Toyota, R. Fukuda, 
 J. Hasegawa, M. Ishida, T. Nakajima, Y. Honda, O. Kitao, H. Nakai, 
 T. Vreven, K. Throssell, J. A. Montgomery, Jr., J. E. Peralta, 
 F. Ogliaro, M. J. Bearpark, J. J. Heyd, E. N. Brothers, K. N. Kudin, 
 V. N. Staroverov, T. A. Keith, R. Kobayashi, J. Normand, 
 K. Raghavachari, A. P. Rendell, J. C. Burant, S. S. Iyengar, 
 J. Tomasi, M. Cossi, J. M. Millam, M. Klene, C. Adamo, R. Cammi, 
 J. W. Ochterski, R. L. Martin, K. Morokuma, O. Farkas, 
 J. B. Foresman, and D. J. Fox, Gaussian, Inc., Wallingford CT, 2016.
 
 ******************************************
 Gaussian 16:  ES64L-G16RevA.03 25-Dec-2016
                30-Jan-2025 
 ******************************************
 %chk=1-3-5-TFB-CAT.chk
 --------------------------------------------------------
 #p opt freq PBE1PBE/6-311++G(d,p) density=current nosymm
 --------------------------------------------------------
 1/18=20,19=15,26=3,38=1/1,3;
 2/9=110,12=2,15=1,17=6,18=5,40=1/2;
 3/5=4,6=6,7=1111,11=2,25=1,30=1,71=1,74=-13/1,2,3;
 4//1;
 5/5=2,38=5/2;
 6/7=2,8=2,9=2,10=2,22=-1,28=1/1;
 7/30=1/1,2,3,16;
 1/18=20,19=15,26=3/3(2);
 2/9=110,15=1/2;
 99//99;
 2/9=110,15=1/2;
 3/5=4,6=6,7=1111,11=2,25=1,30=1,71=1,74=-13/1,2,3;
 4/5=5,16=3,69=1/1;
 5/5=2,38=5/2;
 7/30=1/1,2,3,16;
 1/18=20,19=15,26=3/3(-5);
 2/9=110,15=1/2;
 6/7=2,8=2,9=2,10=2,19=2,22=-1,28=1/1;
 99/9=1/99;
 Leave Link    1 at Thu Jan 30 13:01:04 2025, MaxMem=           0 cpu:               0.0 elap:               0.0
 (Enter /sw/cluster/pub/apps//g16/l101.exe)
 ------------
 1 3 5-DFB SP
 ------------
 Symbolic Z-matrix:
 Charge =  1 Multiplicity = 2
 C                     1.1785    0.68047   0. 
 C                     1.2175   -0.70295   0. 
 C                     0.       -1.36092   0. 
 C                    -1.2175   -0.70295   0. 
 C                    -1.1785    0.68047   0. 
 C                     0.        1.40604   0. 
 H                     2.15458  -1.24386   0. 
 H                    -2.15458  -1.24386   0. 
 H                     0.        2.48801   0. 
 F                     0.       -2.69857   0. 
 F                    -2.33708   1.34906   0. 
 F                     2.33708   1.34906   0. 
 
 ITRead=  0  0  0  0  0  0  0  0  0  0  0  0
 MicOpt= -1 -1 -1 -1 -1 -1 -1 -1 -1 -1 -1 -1
 NAtoms=     12 NQM=       12 NQMF=       0 NMMI=      0 NMMIF=      0
                NMic=       0 NMicF=      0.
                    Isotopes and Nuclear Properties:
 (Nuclear quadrupole moments (NQMom) in fm**2, nuclear magnetic moments (NMagM)
  in nuclear magnetons)

  Atom         1           2           3           4           5           6           7           8           9          10
 IAtWgt=          12          12          12          12          12          12           1           1           1          19
 AtmWgt=  12.0000000  12.0000000  12.0000000  12.0000000  12.0000000  12.0000000   1.0078250   1.0078250   1.0078250  18.9984032
 NucSpn=           0           0           0           0           0           0           1           1           1           1
 AtZEff=  -0.0000000  -0.0000000  -0.0000000  -0.0000000  -0.0000000  -0.0000000  -0.0000000  -0.0000000  -0.0000000  -0.0000000
 NQMom=    0.0000000   0.0000000   0.0000000   0.0000000   0.0000000   0.0000000   0.0000000   0.0000000   0.0000000   0.0000000
 NMagM=    0.0000000   0.0000000   0.0000000   0.0000000   0.0000000   0.0000000   2.7928460   2.7928460   2.7928460   2.6288670
 AtZNuc=   6.0000000   6.0000000   6.0000000   6.0000000   6.0000000   6.0000000   1.0000000   1.0000000   1.0000000   9.0000000

  Atom        11          12
 IAtWgt=          19          19
 AtmWgt=  18.9984032  18.9984032
 NucSpn=           1           1
 AtZEff=  -0.0000000  -0.0000000
 NQMom=    0.0000000   0.0000000
 NMagM=    2.6288670   2.6288670
 AtZNuc=   9.0000000   9.0000000
 Leave Link  101 at Thu Jan 30 13:01:04 2025, MaxMem=   104857600 cpu:               0.0 elap:               0.0
 (Enter /sw/cluster/pub/apps//g16/l103.exe)

 GradGradGradGradGradGradGradGradGradGradGradGradGradGradGradGradGradGrad
 Berny optimization.
 Initialization pass.
                           ----------------------------
                           !    Initial Parameters    !
                           ! (Angstroms and Degrees)  !
 --------------------------                            --------------------------
 ! Name  Definition              Value          Derivative Info.                !
 --------------------------------------------------------------------------------
 ! R1    R(1,2)                  1.384          estimate D2E/DX2                !
 ! R2    R(1,6)                  1.3839         estimate D2E/DX2                !
 ! R3    R(1,12)                 1.3377         estimate D2E/DX2                !
 ! R4    R(2,3)                  1.3839         estimate D2E/DX2                !
 ! R5    R(2,7)                  1.082          estimate D2E/DX2                !
 ! R6    R(3,4)                  1.3839         estimate D2E/DX2                !
 ! R7    R(3,10)                 1.3377         estimate D2E/DX2                !
 ! R8    R(4,5)                  1.384          estimate D2E/DX2                !
 ! R9    R(4,8)                  1.082          estimate D2E/DX2                !
 ! R10   R(5,6)                  1.3839         estimate D2E/DX2                !
 ! R11   R(5,11)                 1.3377         estimate D2E/DX2                !
 ! R12   R(6,9)                  1.082          estimate D2E/DX2                !
 ! A1    A(2,1,6)              123.2344         estimate D2E/DX2                !
 ! A2    A(2,1,12)             118.3736         estimate D2E/DX2                !
 ! A3    A(6,1,12)             118.392          estimate D2E/DX2                !
 ! A4    A(1,2,3)              116.7728         estimate D2E/DX2                !
 ! A5    A(1,2,7)              121.6097         estimate D2E/DX2                !
 ! A6    A(3,2,7)              121.6174         estimate D2E/DX2                !
 ! A7    A(2,3,4)              123.2244         estimate D2E/DX2                !
 ! A8    A(2,3,10)             118.3878         estimate D2E/DX2                !
 ! A9    A(4,3,10)             118.3878         estimate D2E/DX2                !
 ! A10   A(3,4,5)              116.7728         estimate D2E/DX2                !
 ! A11   A(3,4,8)              121.6174         estimate D2E/DX2                !
 ! A12   A(5,4,8)              121.6097         estimate D2E/DX2                !
 ! A13   A(4,5,6)              123.2344         estimate D2E/DX2                !
 ! A14   A(4,5,11)             118.3736         estimate D2E/DX2                !
 ! A15   A(6,5,11)             118.392          estimate D2E/DX2                !
 ! A16   A(1,6,5)              116.761          estimate D2E/DX2                !
 ! A17   A(1,6,9)              121.6195         estimate D2E/DX2                !
 ! A18   A(5,6,9)              121.6195         estimate D2E/DX2                !
 ! D1    D(6,1,2,3)              0.0            estimate D2E/DX2                !
 ! D2    D(6,1,2,7)            180.0            estimate D2E/DX2                !
 ! D3    D(12,1,2,3)           180.0            estimate D2E/DX2                !
 ! D4    D(12,1,2,7)             0.0            estimate D2E/DX2                !
 ! D5    D(2,1,6,5)              0.0            estimate D2E/DX2                !
 ! D6    D(2,1,6,9)            180.0            estimate D2E/DX2                !
 ! D7    D(12,1,6,5)           180.0            estimate D2E/DX2                !
 ! D8    D(12,1,6,9)             0.0            estimate D2E/DX2                !
 ! D9    D(1,2,3,4)              0.0            estimate D2E/DX2                !
 ! D10   D(1,2,3,10)           180.0            estimate D2E/DX2                !
 ! D11   D(7,2,3,4)            180.0            estimate D2E/DX2                !
 ! D12   D(7,2,3,10)             0.0            estimate D2E/DX2                !
 ! D13   D(2,3,4,5)              0.0            estimate D2E/DX2                !
 ! D14   D(2,3,4,8)            180.0            estimate D2E/DX2                !
 ! D15   D(10,3,4,5)           180.0            estimate D2E/DX2                !
 ! D16   D(10,3,4,8)             0.0            estimate D2E/DX2                !
 ! D17   D(3,4,5,6)              0.0            estimate D2E/DX2                !
 ! D18   D(3,4,5,11)           180.0            estimate D2E/DX2                !
 ! D19   D(8,4,5,6)            180.0            estimate D2E/DX2                !
 ! D20   D(8,4,5,11)             0.0            estimate D2E/DX2                !
 ! D21   D(4,5,6,1)              0.0            estimate D2E/DX2                !
 ! D22   D(4,5,6,9)            180.0            estimate D2E/DX2                !
 ! D23   D(11,5,6,1)           180.0            estimate D2E/DX2                !
 ! D24   D(11,5,6,9)             0.0            estimate D2E/DX2                !
 --------------------------------------------------------------------------------
 Trust Radius=3.00D-01 FncErr=1.00D-07 GrdErr=1.00D-06 EigMax=2.50D+02 EigMin=1.00D-04
 Number of steps in this run=     64 maximum allowed number of steps=    100.
 GradGradGradGradGradGradGradGradGradGradGradGradGradGradGradGradGradGrad

 Leave Link  103 at Thu Jan 30 13:01:04 2025, MaxMem=   104857600 cpu:               0.0 elap:               0.0
 (Enter /sw/cluster/pub/apps//g16/l202.exe)
                          Input orientation:                          
 ---------------------------------------------------------------------
 Center     Atomic      Atomic             Coordinates (Angstroms)
 Number     Number       Type             X           Y           Z
 ---------------------------------------------------------------------
      1          6           0        1.178499    0.680466    0.000000
      2          6           0        1.217502   -0.702950    0.000000
      3          6           0        0.000000   -1.360916    0.000000
      4          6           0       -1.217502   -0.702950    0.000000
      5          6           0       -1.178499    0.680466    0.000000
      6          6           0        0.000000    1.406036    0.000000
      7          1           0        2.154583   -1.243860    0.000000
      8          1           0       -2.154583   -1.243860    0.000000
      9          1           0        0.000000    2.488014    0.000000
     10          9           0        0.000000   -2.698573    0.000000
     11          9           0       -2.337080    1.349064    0.000000
     12          9           0        2.337080    1.349064    0.000000
 ---------------------------------------------------------------------
                    Distance matrix (angstroms):
                    1          2          3          4          5
     1  C    0.000000
     2  C    1.383966   0.000000
     3  C    2.357138   1.383919   0.000000
     4  C    2.766706   2.435005   1.383919   0.000000
     5  C    2.356997   2.766706   2.357138   1.383966   0.000000
     6  C    1.383947   2.435186   2.766951   2.435186   1.383947
     7  H    2.157724   1.081991   2.157761   3.415194   3.848697
     8  H    3.848697   3.415194   2.157761   1.081991   2.157724
     9  H    2.157797   3.415343   3.848930   3.415343   2.157797
    10  F    3.578654   2.337696   1.337657   2.337696   3.578654
    11  F    3.578591   4.104366   3.578538   2.337566   1.337660
    12  F    1.337660   2.337566   3.578538   4.104366   3.578591
                    6          7          8          9         10
     6  C    0.000000
     7  H    3.415286   0.000000
     8  H    3.415286   4.309167   0.000000
     9  H    1.081979   4.309190   4.309190   0.000000
    10  F    4.104608   2.599696   2.599696   5.186587   0.000000
    11  F    2.337774   5.186357   2.599339   2.599837   4.673896
    12  F    2.337774   2.599339   5.186357   2.599837   4.673896
                   11         12
    11  F    0.000000
    12  F    4.674160   0.000000
 Symmetry turned off by external request.
 Stoichiometry    C6H3F3(1+,2)
 Framework group  C2V[C2(HCCF),SGV(C4H2F2)]
 Deg. of freedom    11
 Full point group                 C2V     NOp   4
 Rotational constants (GHZ):           1.7684019           1.7682861           0.8841720
 Leave Link  202 at Thu Jan 30 13:01:04 2025, MaxMem=   104857600 cpu:               0.0 elap:               0.0
 (Enter /sw/cluster/pub/apps//g16/l301.exe)
 Standard basis: 6-311++G(d,p) (5D, 7F)
 Ernie: Thresh=  0.10000D-02 Tol=  0.10000D-05 Strict=F.
   219 basis functions,   351 primitive gaussians,   228 cartesian basis functions
    33 alpha electrons       32 beta electrons
       nuclear repulsion energy       424.5038362727 Hartrees.
 IExCor= 1009 DFT=T Ex+Corr=PBE1PBE ExCW=0 ScaHFX=  0.250000
 ScaDFX=  0.750000  0.750000  1.000000  1.000000 ScalE2=  1.000000  1.000000
 IRadAn=      5 IRanWt=     -1 IRanGd=            0 ICorTp=0 IEmpDi=  4
 NAtoms=   12 NActive=   12 NUniq=   12 SFac= 1.00D+00 NAtFMM=   60 NAOKFM=F Big=F
 Integral buffers will be    131072 words long.
 Raffenetti 2 integral format.
 Two-electron integral symmetry is turned off.
 Leave Link  301 at Thu Jan 30 13:01:04 2025, MaxMem=   104857600 cpu:               0.0 elap:               0.0
 (Enter /sw/cluster/pub/apps//g16/l302.exe)
 NPDir=0 NMtPBC=     1 NCelOv=     1 NCel=       1 NClECP=     1 NCelD=      1
         NCelK=      1 NCelE2=     1 NClLst=     1 CellRange=     0.0.
 One-electron integrals computed using PRISM.
 NBasis=   219 RedAO= T EigKep=  2.72D-06  NBF=   219
 NBsUse=   219 1.00D-06 EigRej= -1.00D+00 NBFU=   219
 Precomputing XC quadrature grid using
 IXCGrd= 4 IRadAn=           5 IRanWt=          -1 IRanGd=           0 AccXCQ= 0.00D+00.
 Generated NRdTot=       0 NPtTot=           0 NUsed=           0 NTot=          32
 NSgBfM=   228   228   228   228   228 MxSgAt=    12 MxSgA2=    12.
 Leave Link  302 at Thu Jan 30 13:01:04 2025, MaxMem=   104857600 cpu:               0.1 elap:               0.1
 (Enter /sw/cluster/pub/apps//g16/l303.exe)
 DipDrv:  MaxL=1.
 Leave Link  303 at Thu Jan 30 13:01:04 2025, MaxMem=   104857600 cpu:               0.0 elap:               0.0
 (Enter /sw/cluster/pub/apps//g16/l401.exe)
 ExpMin= 3.60D-02 ExpMax= 1.14D+04 ExpMxC= 1.72D+03 IAcc=3 IRadAn=         5 AccDes= 0.00D+00
 Harris functional with IExCor= 1009 and IRadAn=       5 diagonalized for initial guess.
 HarFok:  IExCor= 1009 AccDes= 0.00D+00 IRadAn=         5 IDoV= 1 UseB2=F ITyADJ=14
 ICtDFT=  3500011 ScaDFX=  1.000000  1.000000  1.000000  1.000000
 FoFCou: FMM=F IPFlag=           0 FMFlag=      100000 FMFlg1=           0
         NFxFlg=           0 DoJE=T BraDBF=F KetDBF=T FulRan=T
         wScrn=  0.000000 ICntrl=       500 IOpCl=  0 I1Cent=   200000004 NGrid=           0
         NMat0=    1 NMatS0=      1 NMatT0=    0 NMatD0=    1 NMtDS0=    0 NMtDT0=    0
 Symmetry not used in FoFCou.
 Harris En= -529.288424357772    
 JPrj=0 DoOrth=F DoCkMO=F.
 Initial guess <Sx>= 0.0000 <Sy>= 0.0000 <Sz>= 0.5000 <S**2>= 0.7500 S= 0.5000
 Leave Link  401 at Thu Jan 30 13:01:06 2025, MaxMem=   104857600 cpu:               1.3 elap:               1.3
 (Enter /sw/cluster/pub/apps//g16/l502.exe)
 Two-electron integral symmetry not used.
 UHF open shell SCF:
 Using DIIS extrapolation, IDIIS=  1040.
 NGot=   104857600 LenX=   104750604 LenY=   104698179
 Requested convergence on RMS density matrix=1.00D-08 within 128 cycles.
 Requested convergence on MAX density matrix=1.00D-06.
 Requested convergence on             energy=1.00D-06.
 No special actions if energy rises.
 Fock matrices will be formed incrementally for  20 cycles.

 Cycle   1  Pass 1  IDiag  1:
 FoFJK:  IHMeth= 1 ICntrl=       0 DoSepK=F KAlg= 0 I1Cent=           0 FoldK=F
 IRaf= 950000000 NMat=       1 IRICut=       1 DoRegI=T DoRafI=F ISym2E= 0 IDoP0=0 IntGTp=1.
 FoFCou: FMM=F IPFlag=           0 FMFlag=      100000 FMFlg1=           0
         NFxFlg=           0 DoJE=F BraDBF=F KetDBF=F FulRan=T
         wScrn=  0.000000 ICntrl=         0 IOpCl=  1 I1Cent=           0 NGrid=           0
         NMat0=    1 NMatS0=      1 NMatT0=    0 NMatD0=    1 NMtDS0=    0 NMtDT0=    0
 Symmetry not used in FoFCou.
 E= -529.107053912837    
 DIIS: error= 2.78D-02 at cycle   1 NSaved=   1.
 NSaved= 1 IEnMin= 1 EnMin= -529.107053912837     IErMin= 1 ErrMin= 2.78D-02
 ErrMax= 2.78D-02  0.00D+00 EMaxC= 1.00D-01 BMatC= 4.90D-01 BMatP= 4.90D-01
 IDIUse=3 WtCom= 7.22D-01 WtEn= 2.78D-01
 Coeff-Com:  0.100D+01
 Coeff-En:   0.100D+01
 Coeff:      0.100D+01
 Gap=     0.259 Goal=   None    Shift=    0.000
 Gap=     0.030 Goal=   None    Shift=    0.000
 GapD=    0.030 DampG=0.250 DampE=0.500 DampFc=0.2500 IDamp=-1.
 Damping current iteration by 2.50D-01
 RMSDP=5.95D-03 MaxDP=1.74D-01              OVMax= 2.32D-01

 Cycle   2  Pass 1  IDiag  1:
 RMSU=  1.40D-03    CP:  9.92D-01
 E= -529.137698053556     Delta-E=       -0.030644140718 Rises=F Damp=T
 DIIS: error= 1.37D-02 at cycle   2 NSaved=   2.
 NSaved= 2 IEnMin= 2 EnMin= -529.137698053556     IErMin= 2 ErrMin= 1.37D-02
 ErrMax= 1.37D-02  0.00D+00 EMaxC= 1.00D-01 BMatC= 1.66D-01 BMatP= 4.90D-01
 IDIUse=3 WtCom= 8.63D-01 WtEn= 1.37D-01
 Coeff-Com: -0.107D+01 0.207D+01
 Coeff-En:   0.000D+00 0.100D+01
 Coeff:     -0.926D+00 0.193D+01
 Gap=     0.237 Goal=   None    Shift=    0.000
 Gap=     0.059 Goal=   None    Shift=    0.000
 RMSDP=4.32D-03 MaxDP=1.22D-01 DE=-3.06D-02 OVMax= 1.53D-01

 Cycle   3  Pass 1  IDiag  1:
 RMSU=  1.95D-03    CP:  9.54D-01  3.00D+00
 E= -529.192700927413     Delta-E=       -0.055002873857 Rises=F Damp=F
 DIIS: error= 5.95D-03 at cycle   3 NSaved=   3.
 NSaved= 3 IEnMin= 3 EnMin= -529.192700927413     IErMin= 3 ErrMin= 5.95D-03
 ErrMax= 5.95D-03  0.00D+00 EMaxC= 1.00D-01 BMatC= 1.11D-02 BMatP= 1.66D-01
 IDIUse=3 WtCom= 9.40D-01 WtEn= 5.95D-02
 Coeff-Com: -0.375D+00 0.638D+00 0.737D+00
 Coeff-En:   0.000D+00 0.000D+00 0.100D+01
 Coeff:     -0.353D+00 0.600D+00 0.752D+00
 Gap=     0.239 Goal=   None    Shift=    0.000
 Gap=     0.062 Goal=   None    Shift=    0.000
 RMSDP=1.35D-03 MaxDP=7.89D-02 DE=-5.50D-02 OVMax= 4.07D-02

 Cycle   4  Pass 1  IDiag  1:
 RMSU=  7.41D-04    CP:  9.39D-01  3.00D+00  7.25D-01
 E= -529.194385271821     Delta-E=       -0.001684344408 Rises=F Damp=F
 DIIS: error= 3.55D-03 at cycle   4 NSaved=   4.
 NSaved= 4 IEnMin= 4 EnMin= -529.194385271821     IErMin= 4 ErrMin= 3.55D-03
 ErrMax= 3.55D-03  0.00D+00 EMaxC= 1.00D-01 BMatC= 5.03D-03 BMatP= 1.11D-02
 IDIUse=3 WtCom= 9.65D-01 WtEn= 3.55D-02
 Coeff-Com: -0.104D+00 0.159D+00 0.429D+00 0.515D+00
 Coeff-En:   0.000D+00 0.000D+00 0.285D+00 0.715D+00
 Coeff:     -0.100D+00 0.154D+00 0.424D+00 0.523D+00
 Gap=     0.237 Goal=   None    Shift=    0.000
 Gap=     0.065 Goal=   None    Shift=    0.000
 RMSDP=3.98D-04 MaxDP=1.41D-02 DE=-1.68D-03 OVMax= 1.53D-02

 Cycle   5  Pass 1  IDiag  1:
 RMSU=  2.27D-04    CP:  9.36D-01  3.00D+00  8.28D-01  7.30D-01
 E= -529.195527941829     Delta-E=       -0.001142670008 Rises=F Damp=F
 DIIS: error= 7.10D-04 at cycle   5 NSaved=   5.
 NSaved= 5 IEnMin= 5 EnMin= -529.195527941829     IErMin= 5 ErrMin= 7.10D-04
 ErrMax= 7.10D-04  0.00D+00 EMaxC= 1.00D-01 BMatC= 1.68D-04 BMatP= 5.03D-03
 IDIUse=3 WtCom= 9.93D-01 WtEn= 7.10D-03
 Coeff-Com: -0.494D-02 0.424D-02 0.992D-01 0.193D+00 0.709D+00
 Coeff-En:   0.000D+00 0.000D+00 0.000D+00 0.000D+00 0.100D+01
 Coeff:     -0.490D-02 0.421D-02 0.985D-01 0.191D+00 0.711D+00
 Gap=     0.237 Goal=   None    Shift=    0.000
 Gap=     0.066 Goal=   None    Shift=    0.000
 RMSDP=2.57D-04 MaxDP=1.44D-02 DE=-1.14D-03 OVMax= 4.68D-03

 Cycle   6  Pass 1  IDiag  1:
 RMSU=  1.08D-04    CP:  9.33D-01  3.00D+00  8.24D-01  7.62D-01  1.32D+00
 E= -529.195578710946     Delta-E=       -0.000050769117 Rises=F Damp=F
 DIIS: error= 3.91D-04 at cycle   6 NSaved=   6.
 NSaved= 6 IEnMin= 6 EnMin= -529.195578710946     IErMin= 6 ErrMin= 3.91D-04
 ErrMax= 3.91D-04  0.00D+00 EMaxC= 1.00D-01 BMatC= 6.74D-05 BMatP= 1.68D-04
 IDIUse=3 WtCom= 9.96D-01 WtEn= 3.91D-03
 Coeff-Com:  0.139D-01-0.237D-01-0.173D-01 0.835D-02 0.398D+00 0.621D+00
 Coeff-En:   0.000D+00 0.000D+00 0.000D+00 0.000D+00 0.000D+00 0.100D+01
 Coeff:      0.138D-01-0.236D-01-0.172D-01 0.831D-02 0.396D+00 0.622D+00
 Gap=     0.236 Goal=   None    Shift=    0.000
 Gap=     0.066 Goal=   None    Shift=    0.000
 RMSDP=1.51D-04 MaxDP=7.30D-03 DE=-5.08D-05 OVMax= 1.88D-03

 Cycle   7  Pass 1  IDiag  1:
 RMSU=  6.22D-05    CP:  9.35D-01  3.00D+00  8.36D-01  7.72D-01  1.19D+00
                    CP:  5.85D-01
 E= -529.195599950618     Delta-E=       -0.000021239673 Rises=F Damp=F
 DIIS: error= 1.83D-04 at cycle   7 NSaved=   7.
 NSaved= 7 IEnMin= 7 EnMin= -529.195599950618     IErMin= 7 ErrMin= 1.83D-04
 ErrMax= 1.83D-04  0.00D+00 EMaxC= 1.00D-01 BMatC= 1.09D-05 BMatP= 6.74D-05
 IDIUse=3 WtCom= 9.98D-01 WtEn= 1.83D-03
 Coeff-Com:  0.799D-02-0.119D-01-0.437D-01-0.665D-01-0.368D-01 0.266D+00
 Coeff-Com:  0.884D+00
 Coeff-En:   0.000D+00 0.000D+00 0.000D+00 0.000D+00 0.000D+00 0.000D+00
 Coeff-En:   0.100D+01
 Coeff:      0.798D-02-0.119D-01-0.436D-01-0.664D-01-0.368D-01 0.266D+00
 Coeff:      0.885D+00
 Gap=     0.236 Goal=   None    Shift=    0.000
 Gap=     0.067 Goal=   None    Shift=    0.000
 RMSDP=3.96D-05 MaxDP=2.17D-03 DE=-2.12D-05 OVMax= 2.02D-03

 Cycle   8  Pass 1  IDiag  1:
 RMSU=  2.62D-05    CP:  9.35D-01  3.00D+00  8.41D-01  7.79D-01  1.26D+00
                    CP:  5.43D-01  1.34D+00
 E= -529.195606444081     Delta-E=       -0.000006493463 Rises=F Damp=F
 DIIS: error= 7.23D-05 at cycle   8 NSaved=   8.
 NSaved= 8 IEnMin= 8 EnMin= -529.195606444081     IErMin= 8 ErrMin= 7.23D-05
 ErrMax= 7.23D-05  0.00D+00 EMaxC= 1.00D-01 BMatC= 2.46D-06 BMatP= 1.09D-05
 IDIUse=1 WtCom= 1.00D+00 WtEn= 0.00D+00
 Coeff-Com:  0.523D-03-0.401D-03-0.180D-01-0.348D-01-0.107D+00 0.182D-01
 Coeff-Com:  0.419D+00 0.722D+00
 Coeff:      0.523D-03-0.401D-03-0.180D-01-0.348D-01-0.107D+00 0.182D-01
 Coeff:      0.419D+00 0.722D+00
 Gap=     0.236 Goal=   None    Shift=    0.000
 Gap=     0.067 Goal=   None    Shift=    0.000
 RMSDP=1.63D-05 MaxDP=9.14D-04 DE=-6.49D-06 OVMax= 8.28D-04

 Cycle   9  Pass 1  IDiag  1:
 RMSU=  5.89D-06    CP:  9.35D-01  3.00D+00  8.41D-01  7.80D-01  1.29D+00
                    CP:  6.03D-01  1.51D+00  1.06D+00
 E= -529.195607470728     Delta-E=       -0.000001026648 Rises=F Damp=F
 DIIS: error= 3.08D-05 at cycle   9 NSaved=   9.
 NSaved= 9 IEnMin= 9 EnMin= -529.195607470728     IErMin= 9 ErrMin= 3.08D-05
 ErrMax= 3.08D-05  0.00D+00 EMaxC= 1.00D-01 BMatC= 2.43D-07 BMatP= 2.46D-06
 IDIUse=1 WtCom= 1.00D+00 WtEn= 0.00D+00
 Coeff-Com: -0.621D-03 0.101D-02-0.247D-02-0.547D-02-0.299D-01-0.438D-02
 Coeff-Com:  0.432D-01 0.232D+00 0.767D+00
 Coeff:     -0.621D-03 0.101D-02-0.247D-02-0.547D-02-0.299D-01-0.438D-02
 Coeff:      0.432D-01 0.232D+00 0.767D+00
 Gap=     0.236 Goal=   None    Shift=    0.000
 Gap=     0.067 Goal=   None    Shift=    0.000
 RMSDP=7.87D-06 MaxDP=4.60D-04 DE=-1.03D-06 OVMax= 2.34D-04

 Cycle  10  Pass 1  IDiag  1:
 RMSU=  3.21D-06    CP:  9.34D-01  3.00D+00  8.40D-01  7.81D-01  1.31D+00
                    CP:  6.18D-01  1.52D+00  1.11D+00  1.26D+00
 E= -529.195607580495     Delta-E=       -0.000000109766 Rises=F Damp=F
 DIIS: error= 1.77D-05 at cycle  10 NSaved=  10.
 NSaved=10 IEnMin=10 EnMin= -529.195607580495     IErMin=10 ErrMin= 1.77D-05
 ErrMax= 1.77D-05  0.00D+00 EMaxC= 1.00D-01 BMatC= 8.44D-08 BMatP= 2.43D-07
 IDIUse=1 WtCom= 1.00D+00 WtEn= 0.00D+00
 Coeff-Com: -0.532D-03 0.726D-03 0.344D-02 0.628D-02 0.148D-01-0.322D-02
 Coeff-Com: -0.976D-01-0.906D-01 0.396D+00 0.771D+00
 Coeff:     -0.532D-03 0.726D-03 0.344D-02 0.628D-02 0.148D-01-0.322D-02
 Coeff:     -0.976D-01-0.906D-01 0.396D+00 0.771D+00
 Gap=     0.236 Goal=   None    Shift=    0.000
 Gap=     0.067 Goal=   None    Shift=    0.000
 RMSDP=6.09D-06 MaxDP=3.74D-04 DE=-1.10D-07 OVMax= 2.11D-04

 Cycle  11  Pass 1  IDiag  1:
 RMSU=  1.72D-06    CP:  9.35D-01  3.00D+00  8.40D-01  7.81D-01  1.31D+00
                    CP:  6.11D-01  1.56D+00  1.21D+00  1.57D+00  1.25D+00
 E= -529.195607632329     Delta-E=       -0.000000051834 Rises=F Damp=F
 DIIS: error= 7.74D-06 at cycle  11 NSaved=  11.
 NSaved=11 IEnMin=11 EnMin= -529.195607632329     IErMin=11 ErrMin= 7.74D-06
 ErrMax= 7.74D-06  0.00D+00 EMaxC= 1.00D-01 BMatC= 9.97D-09 BMatP= 8.44D-08
 IDIUse=1 WtCom= 1.00D+00 WtEn= 0.00D+00
 Coeff-Com:  0.760D-06-0.280D-04 0.697D-03 0.121D-02 0.639D-02-0.650D-04
 Coeff-Com: -0.145D-01-0.350D-01-0.104D+00-0.537D-01 0.120D+01
 Coeff:      0.760D-06-0.280D-04 0.697D-03 0.121D-02 0.639D-02-0.650D-04
 Coeff:     -0.145D-01-0.350D-01-0.104D+00-0.537D-01 0.120D+01
 Gap=     0.236 Goal=   None    Shift=    0.000
 Gap=     0.067 Goal=   None    Shift=    0.000
 RMSDP=2.77D-06 MaxDP=1.33D-04 DE=-5.18D-08 OVMax= 1.36D-04

 Cycle  12  Pass 1  IDiag  1:
 RMSU=  6.73D-07    CP:  9.34D-01  3.00D+00  8.40D-01  7.81D-01  1.31D+00
                    CP:  6.12D-01  1.57D+00  1.25D+00  1.81D+00  1.60D+00
                    CP:  1.40D+00
 E= -529.195607647135     Delta-E=       -0.000000014806 Rises=F Damp=F
 DIIS: error= 6.09D-06 at cycle  12 NSaved=  12.
 NSaved=12 IEnMin=12 EnMin= -529.195607647135     IErMin=12 ErrMin= 6.09D-06
 ErrMax= 6.09D-06  0.00D+00 EMaxC= 1.00D-01 BMatC= 7.79D-09 BMatP= 9.97D-09
 IDIUse=1 WtCom= 1.00D+00 WtEn= 0.00D+00
 Coeff-Com:  0.173D-03-0.254D-03-0.788D-03-0.154D-02-0.107D-02 0.122D-02
 Coeff-Com:  0.236D-01 0.108D-01-0.197D+00-0.300D+00 0.804D+00 0.661D+00
 Coeff:      0.173D-03-0.254D-03-0.788D-03-0.154D-02-0.107D-02 0.122D-02
 Coeff:      0.236D-01 0.108D-01-0.197D+00-0.300D+00 0.804D+00 0.661D+00
 Gap=     0.236 Goal=   None    Shift=    0.000
 Gap=     0.067 Goal=   None    Shift=    0.000
 RMSDP=1.45D-06 MaxDP=6.86D-05 DE=-1.48D-08 OVMax= 7.98D-05

 Cycle  13  Pass 1  IDiag  1:
 RMSU=  3.13D-07    CP:  9.34D-01  3.00D+00  8.40D-01  7.81D-01  1.31D+00
                    CP:  6.13D-01  1.58D+00  1.27D+00  1.91D+00  1.78D+00
                    CP:  1.79D+00  1.03D+00
 E= -529.195607651397     Delta-E=       -0.000000004261 Rises=F Damp=F
 DIIS: error= 1.37D-06 at cycle  13 NSaved=  13.
 NSaved=13 IEnMin=13 EnMin= -529.195607651397     IErMin=13 ErrMin= 1.37D-06
 ErrMax= 1.37D-06  0.00D+00 EMaxC= 1.00D-01 BMatC= 3.44D-10 BMatP= 7.79D-09
 IDIUse=1 WtCom= 1.00D+00 WtEn= 0.00D+00
 Coeff-Com:  0.728D-05-0.636D-05-0.164D-03-0.312D-03-0.119D-02 0.365D-03
 Coeff-Com:  0.263D-02 0.719D-02 0.913D-02 0.635D-02-0.207D+00 0.232D-01
 Coeff-Com:  0.116D+01
 Coeff:      0.728D-05-0.636D-05-0.164D-03-0.312D-03-0.119D-02 0.365D-03
 Coeff:      0.263D-02 0.719D-02 0.913D-02 0.635D-02-0.207D+00 0.232D-01
 Coeff:      0.116D+01
 Gap=     0.236 Goal=   None    Shift=    0.000
 Gap=     0.067 Goal=   None    Shift=    0.000
 RMSDP=6.29D-07 MaxDP=2.60D-05 DE=-4.26D-09 OVMax= 2.82D-05

 Cycle  14  Pass 1  IDiag  1:
 RMSU=  1.15D-07    CP:  9.34D-01  3.00D+00  8.40D-01  7.81D-01  1.32D+00
                    CP:  6.13D-01  1.59D+00  1.28D+00  1.95D+00  1.85D+00
                    CP:  1.93D+00  1.26D+00  1.18D+00
 E= -529.195607651818     Delta-E=       -0.000000000421 Rises=F Damp=F
 DIIS: error= 1.95D-07 at cycle  14 NSaved=  14.
 NSaved=14 IEnMin=14 EnMin= -529.195607651818     IErMin=14 ErrMin= 1.95D-07
 ErrMax= 1.95D-07  0.00D+00 EMaxC= 1.00D-01 BMatC= 2.02D-11 BMatP= 3.44D-10
 IDIUse=1 WtCom= 1.00D+00 WtEn= 0.00D+00
 Coeff-Com: -0.113D-04 0.169D-04 0.306D-04 0.675D-04-0.999D-04-0.100D-05
 Coeff-Com: -0.146D-02 0.227D-03 0.163D-01 0.243D-01-0.876D-01-0.482D-01
 Coeff-Com:  0.128D+00 0.968D+00
 Coeff:     -0.113D-04 0.169D-04 0.306D-04 0.675D-04-0.999D-04-0.100D-05
 Coeff:     -0.146D-02 0.227D-03 0.163D-01 0.243D-01-0.876D-01-0.482D-01
 Coeff:      0.128D+00 0.968D+00
 Gap=     0.236 Goal=   None    Shift=    0.000
 Gap=     0.067 Goal=   None    Shift=    0.000
 RMSDP=1.36D-07 MaxDP=6.85D-06 DE=-4.21D-10 OVMax= 4.15D-06

 Cycle  15  Pass 1  IDiag  1:
 RMSU=  3.10D-08    CP:  9.34D-01  3.00D+00  8.40D-01  7.81D-01  1.32D+00
                    CP:  6.13D-01  1.59D+00  1.29D+00  1.95D+00  1.86D+00
                    CP:  1.94D+00  1.32D+00  1.33D+00  9.79D-01
 E= -529.195607651830     Delta-E=       -0.000000000012 Rises=F Damp=F
 DIIS: error= 6.68D-08 at cycle  15 NSaved=  15.
 NSaved=15 IEnMin=15 EnMin= -529.195607651830     IErMin=15 ErrMin= 6.68D-08
 ErrMax= 6.68D-08  0.00D+00 EMaxC= 1.00D-01 BMatC= 1.53D-12 BMatP= 2.02D-11
 IDIUse=1 WtCom= 1.00D+00 WtEn= 0.00D+00
 Coeff-Com: -0.228D-05 0.302D-05 0.173D-04 0.362D-04 0.114D-03-0.191D-04
 Coeff-Com: -0.394D-03-0.743D-03 0.184D-03 0.478D-03 0.153D-01-0.371D-02
 Coeff-Com: -0.106D+00 0.294D-01 0.107D+01
 Coeff:     -0.228D-05 0.302D-05 0.173D-04 0.362D-04 0.114D-03-0.191D-04
 Coeff:     -0.394D-03-0.743D-03 0.184D-03 0.478D-03 0.153D-01-0.371D-02
 Coeff:     -0.106D+00 0.294D-01 0.107D+01
 Gap=     0.236 Goal=   None    Shift=    0.000
 Gap=     0.067 Goal=   None    Shift=    0.000
 RMSDP=4.25D-08 MaxDP=2.18D-06 DE=-1.24D-11 OVMax= 7.40D-07

 Cycle  16  Pass 1  IDiag  1:
 RMSU=  7.53D-09    CP:  9.34D-01  3.00D+00  8.40D-01  7.81D-01  1.32D+00
                    CP:  6.13D-01  1.59D+00  1.29D+00  1.96D+00  1.86D+00
                    CP:  1.94D+00  1.32D+00  1.34D+00  1.10D+00  1.03D+00
 E= -529.195607651831     Delta-E=       -0.000000000001 Rises=F Damp=F
 DIIS: error= 1.20D-08 at cycle  16 NSaved=  16.
 NSaved=16 IEnMin=16 EnMin= -529.195607651831     IErMin=16 ErrMin= 1.20D-08
 ErrMax= 1.20D-08  0.00D+00 EMaxC= 1.00D-01 BMatC= 3.83D-14 BMatP= 1.53D-12
 IDIUse=1 WtCom= 1.00D+00 WtEn= 0.00D+00
 Coeff-Com:  0.471D-06-0.691D-06-0.237D-05-0.535D-05-0.816D-05 0.104D-05
 Coeff-Com:  0.104D-03 0.450D-04-0.678D-03-0.107D-02 0.273D-02 0.218D-02
 Coeff-Com:  0.996D-03-0.425D-01-0.636D-01 0.110D+01
 Coeff:      0.471D-06-0.691D-06-0.237D-05-0.535D-05-0.816D-05 0.104D-05
 Coeff:      0.104D-03 0.450D-04-0.678D-03-0.107D-02 0.273D-02 0.218D-02
 Coeff:      0.996D-03-0.425D-01-0.636D-01 0.110D+01
 Gap=     0.236 Goal=   None    Shift=    0.000
 Gap=     0.067 Goal=   None    Shift=    0.000
 RMSDP=4.37D-09 MaxDP=2.34D-07 DE=-6.82D-13 OVMax= 9.74D-08

 SCF Done:  E(UPBE1PBE) =  -529.195607652     A.U. after   16 cycles
            NFock= 16  Conv=0.44D-08     -V/T= 2.0028
 <Sx>= 0.0000 <Sy>= 0.0000 <Sz>= 0.5000 <S**2>= 0.7701 S= 0.5100
 <L.S>=  0.00000000000    
 KE= 5.276974290475D+02 PE=-2.083286662802D+03 EE= 6.018897898296D+02
 Annihilation of the first spin contaminant:
 S**2 before annihilation     0.7701,   after     0.7502
 Leave Link  502 at Thu Jan 30 13:02:13 2025, MaxMem=   104857600 cpu:              66.2 elap:              67.6
 (Enter /sw/cluster/pub/apps//g16/l601.exe)
 Copying SCF densities to generalized density rwf, IOpCl= 1 IROHF=0.

 **********************************************************************

            Population analysis using the SCF density.

 **********************************************************************

 Alpha  occ. eigenvalues --  -25.02638 -25.02638 -24.99363 -10.59326 -10.59326
 Alpha  occ. eigenvalues --  -10.56353 -10.51167 -10.51166 -10.47200  -1.50706
 Alpha  occ. eigenvalues --   -1.50646  -1.47804  -1.17097  -1.06004  -1.03600
 Alpha  occ. eigenvalues --   -0.90582  -0.90576  -0.82738  -0.80626  -0.76889
 Alpha  occ. eigenvalues --   -0.76618  -0.75113  -0.74758  -0.72664  -0.70033
 Alpha  occ. eigenvalues --   -0.68678  -0.68415  -0.64181  -0.63713  -0.61779
 Alpha  occ. eigenvalues --   -0.61439  -0.54146  -0.50696
 Alpha virt. eigenvalues --   -0.27110  -0.24590  -0.16360  -0.13703  -0.11045
 Alpha virt. eigenvalues --   -0.11001  -0.10757  -0.10475  -0.10242  -0.07758
 Alpha virt. eigenvalues --   -0.07745  -0.05067  -0.04474  -0.02333  -0.01994
 Alpha virt. eigenvalues --   -0.01886  -0.01172  -0.00577  -0.00135   0.00370
 Alpha virt. eigenvalues --    0.00526   0.01148   0.01172   0.01422   0.01479
 Alpha virt. eigenvalues --    0.02204   0.04679   0.05818   0.06016   0.07445
 Alpha virt. eigenvalues --    0.07575   0.09619   0.11160   0.11274   0.11292
 Alpha virt. eigenvalues --    0.13399   0.15311   0.17990   0.18618   0.18873
 Alpha virt. eigenvalues --    0.19569   0.19675   0.20460   0.21162   0.21763
 Alpha virt. eigenvalues --    0.23017   0.23393   0.27552   0.28151   0.28166
 Alpha virt. eigenvalues --    0.29114   0.29199   0.29389   0.30149   0.36006
 Alpha virt. eigenvalues --    0.36835   0.37031   0.37651   0.38604   0.39323
 Alpha virt. eigenvalues --    0.41119   0.42206   0.43981   0.47601   0.48955
 Alpha virt. eigenvalues --    0.49012   0.50463   0.58585   0.58807   0.61089
 Alpha virt. eigenvalues --    0.63958   0.64953   0.70826   0.70915   0.71374
 Alpha virt. eigenvalues --    0.72005   0.72064   0.75501   0.76307   0.81472
 Alpha virt. eigenvalues --    0.82855   0.82999   0.83264   0.84366   0.96221
 Alpha virt. eigenvalues --    0.96531   1.04102   1.14890   1.21127   1.21417
 Alpha virt. eigenvalues --    1.24253   1.24834   1.25068   1.25738   1.25903
 Alpha virt. eigenvalues --    1.31847   1.32988   1.33765   1.34354   1.35031
 Alpha virt. eigenvalues --    1.36796   1.37455   1.37809   1.38605   1.43111
 Alpha virt. eigenvalues --    1.43572   1.60402   1.60718   1.64163   1.65411
 Alpha virt. eigenvalues --    1.69435   1.70154   1.72422   1.74173   1.75856
 Alpha virt. eigenvalues --    1.83087   1.83182   1.84610   1.86802   1.88236
 Alpha virt. eigenvalues --    1.89638   1.90683   2.05658   2.05820   2.06321
 Alpha virt. eigenvalues --    2.23832   2.24181   2.35271   2.38966   2.40789
 Alpha virt. eigenvalues --    2.49908   2.51072   2.51929   2.52048   2.54343
 Alpha virt. eigenvalues --    2.55927   2.57076   2.61721   2.64724   2.83187
 Alpha virt. eigenvalues --    2.90177   2.91819   2.97132   2.98176   3.13220
 Alpha virt. eigenvalues --    3.13878   3.39876   3.40586   3.41419   3.56525
 Alpha virt. eigenvalues --    3.56942   3.56991   3.60065   3.63086   3.64607
 Alpha virt. eigenvalues --    3.66888   3.77603   3.77885   3.80935   3.91354
 Alpha virt. eigenvalues --    3.91469   3.92308   3.94786   3.96206   4.57698
 Alpha virt. eigenvalues --    4.66625   4.67951   4.69997   6.12666   6.13987
 Alpha virt. eigenvalues --    6.16982   6.26652   6.26672   6.29281   6.52441
 Alpha virt. eigenvalues --    6.61277   6.63196  23.35496  23.72745  23.74647
 Alpha virt. eigenvalues --   23.92154  23.94538  24.03287  66.71447  66.72171
 Alpha virt. eigenvalues --   66.75121
  Beta  occ. eigenvalues --  -25.02372 -25.02372 -24.99427 -10.59025 -10.59024
  Beta  occ. eigenvalues --  -10.56604 -10.50573 -10.50572 -10.47316  -1.50131
  Beta  occ. eigenvalues --   -1.50071  -1.47946  -1.15958  -1.03907  -1.03350
  Beta  occ. eigenvalues --   -0.90098  -0.89874  -0.82533  -0.80300  -0.76449
  Beta  occ. eigenvalues --   -0.76181  -0.74979  -0.72741  -0.70577  -0.69960
  Beta  occ. eigenvalues --   -0.68383  -0.68272  -0.63837  -0.63447  -0.61606
  Beta  occ. eigenvalues --   -0.58500  -0.50006
  Beta virt. eigenvalues --   -0.43302  -0.23381  -0.23037  -0.16002  -0.13520
  Beta virt. eigenvalues --   -0.10817  -0.10579  -0.10459  -0.10211  -0.10144
  Beta virt. eigenvalues --   -0.07459  -0.06077  -0.04515  -0.04387  -0.01984
  Beta virt. eigenvalues --   -0.01867  -0.01801  -0.01046  -0.00309  -0.00089
  Beta virt. eigenvalues --    0.00621   0.00644   0.01258   0.01352   0.01526
  Beta virt. eigenvalues --    0.02145   0.02306   0.04977   0.06128   0.06208
  Beta virt. eigenvalues --    0.07619   0.07670   0.10081   0.11354   0.11457
  Beta virt. eigenvalues --    0.11494   0.13513   0.15316   0.18185   0.18662
  Beta virt. eigenvalues --    0.18928   0.20057   0.20345   0.20650   0.21363
  Beta virt. eigenvalues --    0.21790   0.23164   0.23421   0.27739   0.28213
  Beta virt. eigenvalues --    0.28291   0.29292   0.29375   0.29605   0.31241
  Beta virt. eigenvalues --    0.37010   0.37521   0.37961   0.38061   0.39345
  Beta virt. eigenvalues --    0.39451   0.42539   0.42547   0.44327   0.48412
  Beta virt. eigenvalues --    0.49135   0.49431   0.50832   0.58954   0.58981
  Beta virt. eigenvalues --    0.61571   0.64714   0.65009   0.70947   0.71387
  Beta virt. eigenvalues --    0.71955   0.72174   0.73636   0.76268   0.76497
  Beta virt. eigenvalues --    0.82592   0.83302   0.83716   0.84613   0.85088
  Beta virt. eigenvalues --    0.97234   0.97432   1.04854   1.15601   1.21607
  Beta virt. eigenvalues --    1.21659   1.24431   1.25102   1.25505   1.25960
  Beta virt. eigenvalues --    1.26234   1.32554   1.33252   1.34236   1.34482
  Beta virt. eigenvalues --    1.35191   1.37716   1.37748   1.38389   1.38666
  Beta virt. eigenvalues --    1.43626   1.44057   1.61029   1.61312   1.66017
  Beta virt. eigenvalues --    1.66249   1.70202   1.70207   1.74031   1.74674
  Beta virt. eigenvalues --    1.75836   1.83751   1.84378   1.84756   1.87210
  Beta virt. eigenvalues --    1.88650   1.89677   1.91716   2.06021   2.06064
  Beta virt. eigenvalues --    2.07643   2.24033   2.24528   2.35438   2.40560
  Beta virt. eigenvalues --    2.41336   2.51355   2.51878   2.52172   2.52280
  Beta virt. eigenvalues --    2.54383   2.56187   2.57143   2.64731   2.65289
  Beta virt. eigenvalues --    2.84714   2.90364   2.92173   2.97416   2.98239
  Beta virt. eigenvalues --    3.13704   3.14084   3.40181   3.41212   3.41830
  Beta virt. eigenvalues --    3.57111   3.57693   3.57734   3.59910   3.63795
  Beta virt. eigenvalues --    3.65453   3.66902   3.78404   3.78676   3.80743
  Beta virt. eigenvalues --    3.91912   3.91964   3.92592   3.95070   3.96327
  Beta virt. eigenvalues --    4.58660   4.66932   4.68264   4.69992   6.13647
  Beta virt. eigenvalues --    6.15032   6.16816   6.26842   6.26858   6.29227
  Beta virt. eigenvalues --    6.52609   6.61496   6.63216  23.35727  23.73130
  Beta virt. eigenvalues --   23.74679  23.92715  23.94666  24.03510  66.71667
  Beta virt. eigenvalues --   66.72397  66.75072
          Condensed to atoms (all electrons):
               1          2          3          4          5          6
     1  C   10.087990  -3.634898   2.909419  -2.286357   2.891991  -3.606680
     2  C   -3.634898  12.195967  -3.570003   1.218921  -2.286357   1.261274
     3  C    2.909419  -3.570003  10.107682  -3.570003   2.909419  -2.346911
     4  C   -2.286357   1.218921  -3.570003  12.195968  -3.634898   1.261274
     5  C    2.891991  -2.286357   2.909419  -3.634898  10.087990  -3.606681
     6  C   -3.606680   1.261274  -2.346911   1.261274  -3.606681  12.296415
     7  H   -0.156168   0.628449  -0.148142  -0.016128  -0.012486  -0.013146
     8  H   -0.012486  -0.016128  -0.148142   0.628449  -0.156168  -0.013146
     9  H   -0.143838  -0.018169  -0.011457  -0.018169  -0.143838   0.627424
    10  F    0.003102  -0.238429   0.546395  -0.238429   0.003102   0.009024
    11  F   -0.000380   0.009859  -0.001515  -0.232116   0.562417  -0.236856
    12  F    0.562417  -0.232116  -0.001515   0.009859  -0.000380  -0.236856
               7          8          9         10         11         12
     1  C   -0.156168  -0.012486  -0.143838   0.003102  -0.000380   0.562417
     2  C    0.628449  -0.016128  -0.018169  -0.238429   0.009859  -0.232116
     3  C   -0.148142  -0.148142  -0.011457   0.546395  -0.001515  -0.001515
     4  C   -0.016128   0.628449  -0.018169  -0.238429  -0.232116   0.009859
     5  C   -0.012486  -0.156168  -0.143838   0.003102   0.562417  -0.000380
     6  C   -0.013146  -0.013146   0.627424   0.009024  -0.236856  -0.236856
     7  H    0.384468  -0.000374  -0.000180  -0.016812   0.000405  -0.016085
     8  H   -0.000374   0.384468  -0.000180  -0.016812  -0.016085   0.000405
     9  H   -0.000180  -0.000180   0.394590   0.000441  -0.017865  -0.017865
    10  F   -0.016812  -0.016812   0.000441   9.028030   0.000116   0.000116
    11  F    0.000405  -0.016085  -0.017865   0.000116   8.965030   0.000158
    12  F   -0.016085   0.000405  -0.017865   0.000116   0.000158   8.965030
          Atomic-Atomic Spin Densities.
               1          2          3          4          5          6
     1  C    0.237370   0.018187   0.031613  -0.042088   0.012878   0.005008
     2  C    0.018187   0.462250  -0.062436   0.003311  -0.042088   0.002926
     3  C    0.031613  -0.062436  -0.084733  -0.062436   0.031613  -0.033351
     4  C   -0.042088   0.003311  -0.062436   0.462250   0.018187   0.002926
     5  C    0.012878  -0.042088   0.031613   0.018187   0.237370   0.005008
     6  C    0.005008   0.002926  -0.033351   0.002926   0.005008  -0.102995
     7  H    0.000725  -0.003981  -0.001160   0.001518  -0.001011   0.002159
     8  H   -0.001011   0.001518  -0.001160  -0.003981   0.000725   0.002159
     9  H    0.004898  -0.001390  -0.000091  -0.001390   0.004898  -0.006533
    10  F    0.003085  -0.002740   0.024431  -0.002740   0.003085  -0.002802
    11  F   -0.002079   0.001836  -0.002381   0.000498  -0.038301   0.004973
    12  F   -0.038301   0.000498  -0.002381   0.001836  -0.002079   0.004973
               7          8          9         10         11         12
     1  C    0.000725  -0.001011   0.004898   0.003085  -0.002079  -0.038301
     2  C   -0.003981   0.001518  -0.001390  -0.002740   0.001836   0.000498
     3  C   -0.001160  -0.001160  -0.000091   0.024431  -0.002381  -0.002381
     4  C    0.001518  -0.003981  -0.001390  -0.002740   0.000498   0.001836
     5  C   -0.001011   0.000725   0.004898   0.003085  -0.038301  -0.002079
     6  C    0.002159   0.002159  -0.006533  -0.002802   0.004973   0.004973
     7  H   -0.023359  -0.000060   0.000012   0.000565   0.000018   0.000217
     8  H   -0.000060  -0.023359   0.000012   0.000565   0.000217   0.000018
     9  H    0.000012   0.000012   0.001141  -0.000056  -0.000019  -0.000019
    10  F    0.000565   0.000565  -0.000056  -0.032832   0.000035   0.000035
    11  F    0.000018   0.000217  -0.000019   0.000035   0.094352   0.000001
    12  F    0.000217   0.000018  -0.000019   0.000035   0.000001   0.094352
 Mulliken charges and spin densities:
               1          2
     1  C   -0.614111   0.230284
     2  C    0.681629   0.377889
     3  C   -0.675227  -0.162473
     4  C    0.681629   0.377889
     5  C   -0.614111   0.230284
     6  C    0.604866  -0.115551
     7  H    0.366200  -0.024358
     8  H    0.366200  -0.024358
     9  H    0.349105   0.001464
    10  F   -0.079843  -0.009369
    11  F   -0.033169   0.059149
    12  F   -0.033169   0.059149
 Sum of Mulliken charges =   1.00000   1.00000
 Mulliken charges and spin densities with hydrogens summed into heavy atoms:
               1          2
     1  C   -0.614111   0.230284
     2  C    1.047830   0.353531
     3  C   -0.675227  -0.162473
     4  C    1.047830   0.353531
     5  C   -0.614111   0.230284
     6  C    0.953971  -0.114087
    10  F   -0.079843  -0.009369
    11  F   -0.033169   0.059149
    12  F   -0.033169   0.059149
 Electronic spatial extent (au):  <R**2>=           1104.6646
 Charge=              1.0000 electrons
 Dipole moment (field-independent basis, Debye):
    X=              0.0000    Y=              0.1030    Z=             -0.0000  Tot=              0.1030
 Quadrupole moment (field-independent basis, Debye-Ang):
   XX=            -35.5056   YY=            -39.6184   ZZ=            -46.1045
   XY=              0.0000   XZ=             -0.0000   YZ=             -0.0000
 Traceless Quadrupole moment (field-independent basis, Debye-Ang):
   XX=              4.9039   YY=              0.7911   ZZ=             -5.6950
   XY=              0.0000   XZ=             -0.0000   YZ=             -0.0000
 Octapole moment (field-independent basis, Debye-Ang**2):
  XXX=              0.0000  YYY=             17.9447  ZZZ=             -0.0000  XYY=              0.0000
  XXY=            -14.7943  XXZ=             -0.0000  XZZ=              0.0000  YZZ=             -0.2236
  YYZ=             -0.0000  XYZ=             -0.0000
 Hexadecapole moment (field-independent basis, Debye-Ang**3):
 XXXX=           -512.0629 YYYY=           -535.9876 ZZZZ=            -41.1337 XXXY=              0.0000
 XXXZ=             -0.0000 YYYX=              0.0000 YYYZ=             -0.0000 ZZZX=             -0.0000
 ZZZY=             -0.0000 XXYY=           -171.2842 XXZZ=            -97.4065 YYZZ=           -100.6378
 XXYZ=             -0.0000 YYXZ=             -0.0000 ZZXY=             -0.0000
 N-N= 4.245038362727D+02 E-N=-2.083286662590D+03  KE= 5.276974290475D+02
                          Isotropic Fermi Contact Couplings
        Atom                 a.u.       MegaHertz       Gauss      10(-4) cm-1
     1  C(13)             -0.00136      -1.53072      -0.54620      -0.51059
     2  C(13)              0.01631      18.33004       6.54061       6.11424
     3  C(13)             -0.03256     -36.60375     -13.06113     -12.20970
     4  C(13)              0.01631      18.33004       6.54061       6.11424
     5  C(13)             -0.00136      -1.53072      -0.54620      -0.51059
     6  C(13)             -0.01420     -15.96649      -5.69724      -5.32585
     7  H(1)              -0.00621     -27.76688      -9.90791      -9.26203
     8  H(1)              -0.00621     -27.76688      -9.90791      -9.26203
     9  H(1)               0.00066       2.93260       1.04643       0.97821
    10  F(19)             -0.00583     -24.51870      -8.74888      -8.17856
    11  F(19)              0.01139      47.90561      17.09391      15.97959
    12  F(19)              0.01139      47.90561      17.09391      15.97959
 --------------------------------------------------------
       Center         ----  Spin Dipole Couplings  ----
                      3XX-RR        3YY-RR        3ZZ-RR
 --------------------------------------------------------
     1   Atom       -0.131479     -0.116738      0.248216
     2   Atom       -0.230080     -0.224507      0.454587
     3   Atom        0.083872      0.074179     -0.158051
     4   Atom       -0.230080     -0.224507      0.454587
     5   Atom       -0.131479     -0.116738      0.248216
     6   Atom        0.036608      0.037261     -0.073869
     7   Atom        0.013132     -0.007397     -0.005735
     8   Atom        0.013132     -0.007397     -0.005735
     9   Atom        0.003412      0.002022     -0.005434
    10   Atom        0.048143      0.080245     -0.128389
    11   Atom       -0.275955     -0.272318      0.548273
    12   Atom       -0.275955     -0.272318      0.548273
 --------------------------------------------------------
                        XY            XZ            YZ
 --------------------------------------------------------
     1   Atom        0.004715     -0.000000     -0.000000
     2   Atom       -0.005343      0.000000      0.000000
     3   Atom        0.000000     -0.000000      0.000000
     4   Atom        0.005343     -0.000000     -0.000000
     5   Atom       -0.004715      0.000000      0.000000
     6   Atom       -0.000000      0.000000      0.000000
     7   Atom       -0.030695     -0.000000      0.000000
     8   Atom        0.030695      0.000000      0.000000
     9   Atom        0.000000      0.000000     -0.000000
    10   Atom       -0.000000     -0.000000      0.000000
    11   Atom        0.000909      0.000000      0.000000
    12   Atom       -0.000909     -0.000000     -0.000000
 --------------------------------------------------------


 ---------------------------------------------------------------------------------
              Anisotropic Spin Dipole Couplings in Principal Axis System
 ---------------------------------------------------------------------------------

       Atom             a.u.   MegaHertz   Gauss  10(-4) cm-1        Axes

              Baa    -0.1329   -17.828    -6.362    -5.947  0.9598 -0.2807  0.0000
     1 C(13)  Bbb    -0.1154   -15.480    -5.524    -5.164  0.2807  0.9598  0.0000
              Bcc     0.2482    33.308    11.885    11.110 -0.0000 -0.0000  1.0000
 
              Baa    -0.2333   -31.309   -11.172   -10.444  0.8551  0.5184 -0.0000
     2 C(13)  Bbb    -0.2213   -29.692   -10.595    -9.904 -0.5184  0.8551 -0.0000
              Bcc     0.4546    61.001    21.767    20.348  0.0000  0.0000  1.0000
 
              Baa    -0.1581   -21.209    -7.568    -7.075  0.0000 -0.0000  1.0000
     3 C(13)  Bbb     0.0742     9.954     3.552     3.320 -0.0000  1.0000  0.0000
              Bcc     0.0839    11.255     4.016     3.754  1.0000  0.0000 -0.0000
 
              Baa    -0.2333   -31.309   -11.172   -10.444  0.8551 -0.5184  0.0000
     4 C(13)  Bbb    -0.2213   -29.692   -10.595    -9.904  0.5184  0.8551  0.0000
              Bcc     0.4546    61.001    21.767    20.348 -0.0000 -0.0000  1.0000
 
              Baa    -0.1329   -17.828    -6.362    -5.947  0.9598  0.2807 -0.0000
     5 C(13)  Bbb    -0.1154   -15.480    -5.524    -5.164 -0.2807  0.9598 -0.0000
              Bcc     0.2482    33.308    11.885    11.110  0.0000  0.0000  1.0000
 
              Baa    -0.0739    -9.912    -3.537    -3.306 -0.0000 -0.0000  1.0000
     6 C(13)  Bbb     0.0366     4.912     1.753     1.639  1.0000  0.0000  0.0000
              Bcc     0.0373     5.000     1.784     1.668 -0.0000  1.0000  0.0000
 
              Baa    -0.0295   -15.739    -5.616    -5.250  0.5843  0.8115 -0.0000
     7 H(1)   Bbb    -0.0057    -3.060    -1.092    -1.021  0.0000 -0.0000  1.0000
              Bcc     0.0352    18.799     6.708     6.271  0.8115 -0.5843 -0.0000
 
              Baa    -0.0295   -15.739    -5.616    -5.250 -0.5843  0.8115  0.0000
     8 H(1)   Bbb    -0.0057    -3.060    -1.092    -1.021 -0.0000 -0.0000  1.0000
              Bcc     0.0352    18.799     6.708     6.271  0.8115  0.5843  0.0000
 
              Baa    -0.0054    -2.899    -1.035    -0.967 -0.0000  0.0000  1.0000
     9 H(1)   Bbb     0.0020     1.079     0.385     0.360 -0.0000  1.0000 -0.0000
              Bcc     0.0034     1.821     0.650     0.607  1.0000  0.0000  0.0000
 
              Baa    -0.1284   -64.480   -23.008   -21.508  0.0000 -0.0000  1.0000
    10 F(19)  Bbb     0.0481    24.179     8.628     8.065  1.0000  0.0000 -0.0000
              Bcc     0.0802    40.301    14.380    13.443 -0.0000  1.0000  0.0000
 
              Baa    -0.2762  -138.699   -49.491   -46.265  0.9733 -0.2296 -0.0000
    11 F(19)  Bbb    -0.2721  -136.657   -48.763   -45.584  0.2296  0.9733 -0.0000
              Bcc     0.5483   275.356    98.254    91.849  0.0000  0.0000  1.0000
 
              Baa    -0.2762  -138.699   -49.491   -46.265  0.9733  0.2296  0.0000
    12 F(19)  Bbb    -0.2721  -136.657   -48.763   -45.584 -0.2296  0.9733  0.0000
              Bcc     0.5483   275.356    98.254    91.849 -0.0000 -0.0000  1.0000
 

 ---------------------------------------------------------------------------------

 No NMR shielding tensors so no spin-rotation constants.
 Leave Link  601 at Thu Jan 30 13:02:14 2025, MaxMem=   104857600 cpu:               0.1 elap:               0.1
 (Enter /sw/cluster/pub/apps//g16/l701.exe)
 ... and contract with generalized density number  0.
 Compute integral first derivatives.
 Leave Link  701 at Thu Jan 30 13:02:14 2025, MaxMem=   104857600 cpu:               0.1 elap:               0.1
 (Enter /sw/cluster/pub/apps//g16/l702.exe)
 L702 exits ... SP integral derivatives will be done elsewhere.
 Leave Link  702 at Thu Jan 30 13:02:14 2025, MaxMem=   104857600 cpu:               0.0 elap:               0.0
 (Enter /sw/cluster/pub/apps//g16/l703.exe)
 Integral derivatives from FoFJK, PRISM(SPDF).
 Compute integral first derivatives, UseDBF=F ICtDFT=           0.
 Calling FoFJK, ICntrl=      2127 FMM=F ISym2X=0 I1Cent= 0 IOpClX= 1 NMat=1 NMatS=1 NMatT=0.
 FoFJK:  IHMeth= 1 ICntrl=    2127 DoSepK=F KAlg= 0 I1Cent=           0 FoldK=F
 IRaf=         0 NMat=       1 IRICut=       1 DoRegI=T DoRafI=F ISym2E= 0 IDoP0=0 IntGTp=1.
 FoFCou: FMM=F IPFlag=           0 FMFlag=      100000 FMFlg1=         800
         NFxFlg=           0 DoJE=F BraDBF=F KetDBF=F FulRan=T
         wScrn=  0.000000 ICntrl=      2127 IOpCl=  1 I1Cent=           0 NGrid=           0
         NMat0=    1 NMatS0=      1 NMatT0=    0 NMatD0=    1 NMtDS0=    0 NMtDT0=    0
 Symmetry not used in FoFCou.
 Leave Link  703 at Thu Jan 30 13:02:26 2025, MaxMem=   104857600 cpu:              12.3 elap:              12.3
 (Enter /sw/cluster/pub/apps//g16/l716.exe)
 Dipole        = 2.37434428D-09 4.05283515D-02-1.66457367D-10
 -------------------------------------------------------------------
 Center     Atomic                   Forces (Hartrees/Bohr)
 Number     Number              X              Y              Z
 -------------------------------------------------------------------
      1        6           0.018703109    0.064967759    0.000000000
      2        6          -0.001629101   -0.037741809   -0.000000000
      3        6           0.000000000   -0.034546133   -0.000000000
      4        6           0.001629101   -0.037741809    0.000000000
      5        6          -0.018703109    0.064967759   -0.000000000
      6        6          -0.000000000    0.004150938   -0.000000000
      7        1           0.002197747   -0.001855884    0.000000000
      8        1          -0.002197747   -0.001855884   -0.000000000
      9        1          -0.000000000    0.001135516    0.000000000
     10        9          -0.000000000    0.021672541   -0.000000000
     11        9           0.030311842   -0.021576497    0.000000000
     12        9          -0.030311842   -0.021576497   -0.000000000
 -------------------------------------------------------------------
 Cartesian Forces:  Max     0.064967759 RMS     0.021384273
 Leave Link  716 at Thu Jan 30 13:02:26 2025, MaxMem=   104857600 cpu:               0.0 elap:               0.0
 (Enter /sw/cluster/pub/apps//g16/l103.exe)

 GradGradGradGradGradGradGradGradGradGradGradGradGradGradGradGradGradGrad
 Berny optimization.
 FormGI is forming the generalized inverse of G from B-inverse, IUseBI=4.
 Internal  Forces:  Max     0.046135579 RMS     0.012145224
 Search for a local minimum.
 Step number   1 out of a maximum of   64
 All quantities printed in internal units (Hartrees-Bohrs-Radians)
 RMS Force = .12145D-01 SwitMx=.10000D-02 MixMth= 1
 Mixed Optimization -- RFO/linear search
 Second derivative matrix not updated -- first step.
 ITU=  0
     Eigenvalues ---    0.02301   0.02301   0.02301   0.02301   0.02301
     Eigenvalues ---    0.02301   0.02301   0.02301   0.02301   0.16000
     Eigenvalues ---    0.16000   0.16000   0.23500   0.23529   0.23529
     Eigenvalues ---    0.25000   0.25000   0.25000   0.35755   0.35755
     Eigenvalues ---    0.35756   0.43919   0.43923   0.48384   0.48387
     Eigenvalues ---    0.48390   0.48392   0.57733   0.57733   0.57733
 RFO step:  Lambda=-1.57671724D-02 EMin= 2.30095711D-02
 Linear search not attempted -- first point.
 Iteration  1 RMS(Cart)=  0.02892620 RMS(Int)=  0.00023261
 Iteration  2 RMS(Cart)=  0.00037034 RMS(Int)=  0.00002321
 Iteration  3 RMS(Cart)=  0.00000010 RMS(Int)=  0.00002321
 ITry= 1 IFail=0 DXMaxC= 9.25D-02 DCOld= 1.00D+10 DXMaxT= 3.00D-01 DXLimC= 3.00D+00 Rises=F
 Variable       Old X    -DE/DX   Delta X   Delta X   Delta X     New X
                                 (Linear)    (Quad)   (Total)
    R1        2.61532   0.04614   0.00000   0.09235   0.09235   2.70766
    R2        2.61528  -0.00489   0.00000  -0.00964  -0.00967   2.60561
    R3        2.52781  -0.03704   0.00000  -0.06245  -0.06245   2.46536
    R4        2.61523  -0.00017   0.00000  -0.00049  -0.00046   2.61477
    R5        2.04467   0.00283   0.00000   0.00758   0.00758   2.05225
    R6        2.61523  -0.00017   0.00000  -0.00049  -0.00046   2.61477
    R7        2.52781  -0.02167   0.00000  -0.03654  -0.03654   2.49126
    R8        2.61532   0.04614   0.00000   0.09235   0.09235   2.70766
    R9        2.04467   0.00283   0.00000   0.00758   0.00758   2.05225
   R10        2.61528  -0.00489   0.00000  -0.00964  -0.00967   2.60561
   R11        2.52781  -0.03704   0.00000  -0.06245  -0.06245   2.46536
   R12        2.04464   0.00114   0.00000   0.00304   0.00304   2.04768
    A1        2.15085   0.00526   0.00000   0.02021   0.02017   2.17102
    A2        2.06601  -0.00710   0.00000  -0.02693  -0.02691   2.03910
    A3        2.06633   0.00184   0.00000   0.00672   0.00674   2.07307
    A4        2.03807   0.00347   0.00000   0.01451   0.01455   2.05262
    A5        2.12249  -0.00122   0.00000  -0.00430  -0.00431   2.11818
    A6        2.12262  -0.00226   0.00000  -0.01021  -0.01023   2.11239
    A7        2.15067  -0.00909   0.00000  -0.03469  -0.03462   2.11605
    A8        2.06626   0.00455   0.00000   0.01735   0.01731   2.08357
    A9        2.06626   0.00455   0.00000   0.01735   0.01731   2.08357
   A10        2.03807   0.00347   0.00000   0.01451   0.01455   2.05262
   A11        2.12262  -0.00226   0.00000  -0.01021  -0.01023   2.11239
   A12        2.12249  -0.00122   0.00000  -0.00430  -0.00431   2.11818
   A13        2.15085   0.00526   0.00000   0.02021   0.02017   2.17102
   A14        2.06601  -0.00710   0.00000  -0.02693  -0.02691   2.03910
   A15        2.06633   0.00184   0.00000   0.00672   0.00674   2.07307
   A16        2.03786  -0.00838   0.00000  -0.03474  -0.03482   2.00305
   A17        2.12266   0.00419   0.00000   0.01737   0.01741   2.14007
   A18        2.12266   0.00419   0.00000   0.01737   0.01741   2.14007
    D1        0.00000  -0.00000   0.00000  -0.00000  -0.00000   0.00000
    D2        3.14159  -0.00000   0.00000  -0.00000   0.00000   3.14159
    D3        3.14159   0.00000   0.00000   0.00000   0.00000   3.14159
    D4       -0.00000   0.00000   0.00000   0.00000   0.00000   0.00000
    D5        0.00000   0.00000   0.00000   0.00000   0.00000   0.00000
    D6        3.14159   0.00000   0.00000   0.00000   0.00000   3.14159
    D7        3.14159  -0.00000   0.00000  -0.00000   0.00000   3.14159
    D8        0.00000  -0.00000   0.00000  -0.00000  -0.00000   0.00000
    D9        0.00000   0.00000   0.00000   0.00000   0.00000   0.00000
   D10        3.14159   0.00000   0.00000   0.00000   0.00000   3.14159
   D11        3.14159   0.00000   0.00000   0.00000   0.00000   3.14159
   D12        0.00000   0.00000   0.00000   0.00000   0.00000   0.00000
   D13        0.00000   0.00000   0.00000   0.00000  -0.00000   0.00000
   D14        3.14159  -0.00000   0.00000  -0.00000   0.00000   3.14159
   D15        3.14159   0.00000   0.00000   0.00000   0.00000   3.14159
   D16        0.00000   0.00000   0.00000   0.00000   0.00000   0.00000
   D17        0.00000  -0.00000   0.00000  -0.00000   0.00000   0.00000
   D18        3.14159   0.00000   0.00000   0.00000   0.00000   3.14159
   D19        3.14159  -0.00000   0.00000  -0.00000   0.00000   3.14159
   D20        0.00000   0.00000   0.00000   0.00000  -0.00000   0.00000
   D21        0.00000  -0.00000   0.00000  -0.00000  -0.00000   0.00000
   D22        3.14159   0.00000   0.00000  -0.00000   0.00000   3.14159
   D23        3.14159  -0.00000   0.00000  -0.00000   0.00000   3.14159
   D24        0.00000  -0.00000   0.00000  -0.00000  -0.00000   0.00000
         Item               Value     Threshold  Converged?
 Maximum Force            0.046136     0.000450     NO 
 RMS     Force            0.012145     0.000300     NO 
 Maximum Displacement     0.092528     0.001800     NO 
 RMS     Displacement     0.028986     0.001200     NO 
 Predicted change in Energy=-8.144918D-03
 Lowest energy point so far.  Saving SCF results.
 GradGradGradGradGradGradGradGradGradGradGradGradGradGradGradGradGradGrad

 Leave Link  103 at Thu Jan 30 13:02:26 2025, MaxMem=   104857600 cpu:               0.0 elap:               0.0
 (Enter /sw/cluster/pub/apps//g16/l202.exe)
                          Input orientation:                          
 ---------------------------------------------------------------------
 Center     Atomic      Atomic             Coordinates (Angstroms)
 Number     Number       Type             X           Y           Z
 ---------------------------------------------------------------------
      1          6           0        1.161379    0.710175    0.000000
      2          6           0        1.205721   -0.721972    0.000000
      3          6           0        0.000000   -1.400796    0.000000
      4          6           0       -1.205721   -0.721972   -0.000000
      5          6           0       -1.161379    0.710175    0.000000
      6          6           0        0.000000    1.453389    0.000000
      7          1           0        2.150098   -1.258217   -0.000000
      8          1           0       -2.150098   -1.258217   -0.000000
      9          1           0       -0.000000    2.536978    0.000000
     10          9           0        0.000000   -2.719116   -0.000000
     11          9           0       -2.306750    1.334787   -0.000000
     12          9           0        2.306750    1.334787    0.000000
 ---------------------------------------------------------------------
                    Distance matrix (angstroms):
                    1          2          3          4          5
     1  C    0.000000
     2  C    1.432834   0.000000
     3  C    2.409356   1.383678   0.000000
     4  C    2.766623   2.411441   1.383678   0.000000
     5  C    2.322758   2.766623   2.409356   1.432834   0.000000
     6  C    1.378829   2.487159   2.854186   2.487159   1.378829
     7  H    2.202755   1.086004   2.154820   3.398393   3.852329
     8  H    3.852329   3.398393   2.154820   1.086004   2.202755
     9  H    2.164719   3.474841   3.937774   3.474841   2.164719
    10  F    3.620613   2.332884   1.318320   2.332884   3.620613
    11  F    3.523927   4.070345   3.578339   2.332922   1.304613
    12  F    1.304613   2.332922   3.578339   4.070345   3.523927
                    6          7          8          9         10
     6  C    0.000000
     7  H    3.460596   0.000000
     8  H    3.460596   4.300195   0.000000
     9  H    1.083588   4.361928   4.361928   0.000000
    10  F    4.172506   2.599452   2.599452   5.256094   0.000000
    11  F    2.309797   5.156274   2.597731   2.601223   4.664250
    12  F    2.309797   2.597731   5.156274   2.601223   4.664250
                   11         12
    11  F    0.000000
    12  F    4.613500   0.000000
 Symmetry turned off by external request.
 Stoichiometry    C6H3F3(1+,2)
 Framework group  C2V[C2(HCCF),SGV(C4H2F2)]
 Deg. of freedom    11
 Full point group                 C2V     NOp   4
 Rotational constants (GHZ):           1.8129255           1.7346237           0.8864552
 Leave Link  202 at Thu Jan 30 13:02:26 2025, MaxMem=   104857600 cpu:               0.0 elap:               0.0
 (Enter /sw/cluster/pub/apps//g16/l301.exe)
 Standard basis: 6-311++G(d,p) (5D, 7F)
 Ernie: Thresh=  0.10000D-02 Tol=  0.10000D-05 Strict=F.
   219 basis functions,   351 primitive gaussians,   228 cartesian basis functions
    33 alpha electrons       32 beta electrons
       nuclear repulsion energy       424.8339098681 Hartrees.
 IExCor= 1009 DFT=T Ex+Corr=PBE1PBE ExCW=0 ScaHFX=  0.250000
 ScaDFX=  0.750000  0.750000  1.000000  1.000000 ScalE2=  1.000000  1.000000
 IRadAn=      5 IRanWt=     -1 IRanGd=            0 ICorTp=0 IEmpDi=  4
 NAtoms=   12 NActive=   12 NUniq=   12 SFac= 1.00D+00 NAtFMM=   60 NAOKFM=F Big=F
 Integral buffers will be    131072 words long.
 Raffenetti 2 integral format.
 Two-electron integral symmetry is turned off.
 Leave Link  301 at Thu Jan 30 13:02:26 2025, MaxMem=   104857600 cpu:               0.0 elap:               0.0
 (Enter /sw/cluster/pub/apps//g16/l302.exe)
 NPDir=0 NMtPBC=     1 NCelOv=     1 NCel=       1 NClECP=     1 NCelD=      1
         NCelK=      1 NCelE2=     1 NClLst=     1 CellRange=     0.0.
 One-electron integrals computed using PRISM.
 NBasis=   219 RedAO= T EigKep=  2.98D-06  NBF=   219
 NBsUse=   219 1.00D-06 EigRej= -1.00D+00 NBFU=   219
 Precomputing XC quadrature grid using
 IXCGrd= 4 IRadAn=           5 IRanWt=          -1 IRanGd=           0 AccXCQ= 0.00D+00.
 Generated NRdTot=       0 NPtTot=           0 NUsed=           0 NTot=          32
 NSgBfM=   228   228   228   228   228 MxSgAt=    12 MxSgA2=    12.
 Leave Link  302 at Thu Jan 30 13:02:26 2025, MaxMem=   104857600 cpu:               0.1 elap:               0.1
 (Enter /sw/cluster/pub/apps//g16/l303.exe)
 DipDrv:  MaxL=1.
 Leave Link  303 at Thu Jan 30 13:02:27 2025, MaxMem=   104857600 cpu:               0.0 elap:               0.1
 (Enter /sw/cluster/pub/apps//g16/l401.exe)
 Initial guess from the checkpoint file:  "1-3-5-TFB-CAT.chk"
 B after Tr=     0.000000   -0.007117   -0.000000
         Rot=    1.000000    0.000000   -0.000000   -0.000000 Ang=   0.00 deg.
 Guess basis will be translated and rotated to current coordinates.
 JPrj=2 DoOrth=T DoCkMO=T.
 Initial guess <Sx>= 0.0000 <Sy>= 0.0000 <Sz>= 0.5000 <S**2>= 0.7701 S= 0.5100
 Generating alternative initial guess.
 ExpMin= 3.60D-02 ExpMax= 1.14D+04 ExpMxC= 1.72D+03 IAcc=3 IRadAn=         5 AccDes= 0.00D+00
 Harris functional with IExCor= 1009 and IRadAn=       5 diagonalized for initial guess.
 HarFok:  IExCor= 1009 AccDes= 0.00D+00 IRadAn=         5 IDoV= 1 UseB2=F ITyADJ=14
 ICtDFT=  3500011 ScaDFX=  1.000000  1.000000  1.000000  1.000000
 FoFCou: FMM=F IPFlag=           0 FMFlag=      100000 FMFlg1=           0
         NFxFlg=           0 DoJE=T BraDBF=F KetDBF=T FulRan=T
         wScrn=  0.000000 ICntrl=       500 IOpCl=  0 I1Cent=   200000004 NGrid=           0
         NMat0=    1 NMatS0=      1 NMatT0=    0 NMatD0=    1 NMtDS0=    0 NMtDT0=    0
 Symmetry not used in FoFCou.
 Harris En= -529.291460405733    
 Leave Link  401 at Thu Jan 30 13:02:28 2025, MaxMem=   104857600 cpu:               1.3 elap:               1.4
 (Enter /sw/cluster/pub/apps//g16/l502.exe)
 Two-electron integral symmetry not used.
 UHF open shell SCF:
 Using DIIS extrapolation, IDIIS=  1040.
 NGot=   104857600 LenX=   104750604 LenY=   104698179
 Requested convergence on RMS density matrix=1.00D-08 within 128 cycles.
 Requested convergence on MAX density matrix=1.00D-06.
 Requested convergence on             energy=1.00D-06.
 No special actions if energy rises.
 Fock matrices will be formed incrementally for  20 cycles.

 Cycle   1  Pass 1  IDiag  1:
 FoFJK:  IHMeth= 1 ICntrl=       0 DoSepK=F KAlg= 0 I1Cent=           0 FoldK=F
 IRaf= 950000000 NMat=       1 IRICut=       1 DoRegI=T DoRafI=F ISym2E= 0 IDoP0=0 IntGTp=1.
 FoFCou: FMM=F IPFlag=           0 FMFlag=      100000 FMFlg1=           0
         NFxFlg=           0 DoJE=F BraDBF=F KetDBF=F FulRan=T
         wScrn=  0.000000 ICntrl=         0 IOpCl=  1 I1Cent=           0 NGrid=           0
         NMat0=    1 NMatS0=      1 NMatT0=    0 NMatD0=    1 NMtDS0=    0 NMtDT0=    0
 Symmetry not used in FoFCou.
 E= -529.199151051167    
 DIIS: error= 3.82D-03 at cycle   1 NSaved=   1.
 NSaved= 1 IEnMin= 1 EnMin= -529.199151051167     IErMin= 1 ErrMin= 3.82D-03
 ErrMax= 3.82D-03  0.00D+00 EMaxC= 1.00D-01 BMatC= 1.86D-02 BMatP= 1.86D-02
 IDIUse=3 WtCom= 9.62D-01 WtEn= 3.82D-02
 Coeff-Com:  0.100D+01
 Coeff-En:   0.100D+01
 Coeff:      0.100D+01
 Gap=     0.480 Goal=   None    Shift=    0.000
 Gap=     0.475 Goal=   None    Shift=    0.000
 GapD=    0.475 DampG=2.000 DampE=1.000 DampFc=2.0000 IDamp=-1.
 RMSDP=9.18D-03 MaxDP=6.47D-01              OVMax= 2.20D-02

 Cycle   2  Pass 1  IDiag  1:
 RMSU=  4.90D-03    CP:  8.68D-01
 E= -529.204208402449     Delta-E=       -0.005057351283 Rises=F Damp=F
 DIIS: error= 1.77D-03 at cycle   2 NSaved=   2.
 NSaved= 2 IEnMin= 2 EnMin= -529.204208402449     IErMin= 2 ErrMin= 1.77D-03
 ErrMax= 1.77D-03  0.00D+00 EMaxC= 1.00D-01 BMatC= 1.92D-03 BMatP= 1.86D-02
 IDIUse=3 WtCom= 9.82D-01 WtEn= 1.77D-02
 Coeff-Com:  0.115D+00 0.885D+00
 Coeff-En:   0.000D+00 0.100D+01
 Coeff:      0.113D+00 0.887D+00
 Gap=     0.232 Goal=   None    Shift=    0.000
 Gap=     0.080 Goal=   None    Shift=    0.000
 RMSDP=6.00D-04 MaxDP=2.63D-02 DE=-5.06D-03 OVMax= 1.13D-02

 Cycle   3  Pass 1  IDiag  1:
 RMSU=  4.31D-04    CP:  8.75D-01  1.00D+00
 E= -529.204136249277     Delta-E=        0.000072153172 Rises=F Damp=F
 DIIS: error= 2.00D-03 at cycle   3 NSaved=   3.
 NSaved= 3 IEnMin= 2 EnMin= -529.204208402449     IErMin= 2 ErrMin= 1.77D-03
 ErrMax= 2.00D-03  0.00D+00 EMaxC= 1.00D-01 BMatC= 2.41D-03 BMatP= 1.92D-03
 IDIUse=3 WtCom= 1.83D-01 WtEn= 8.17D-01
 Coeff-Com: -0.176D-01 0.535D+00 0.483D+00
 Coeff-En:   0.000D+00 0.540D+00 0.460D+00
 Coeff:     -0.322D-02 0.539D+00 0.464D+00
 Gap=     0.235 Goal=   None    Shift=    0.000
 Gap=     0.083 Goal=   None    Shift=    0.000
 RMSDP=4.81D-04 MaxDP=2.07D-02 DE= 7.22D-05 OVMax= 5.47D-03

 Cycle   4  Pass 1  IDiag  1:
 RMSU=  1.33D-04    CP:  8.68D-01  1.02D+00  5.31D-01
 E= -529.204584028021     Delta-E=       -0.000447778744 Rises=F Damp=F
 DIIS: error= 2.76D-04 at cycle   4 NSaved=   4.
 NSaved= 4 IEnMin= 4 EnMin= -529.204584028021     IErMin= 4 ErrMin= 2.76D-04
 ErrMax= 2.76D-04  0.00D+00 EMaxC= 1.00D-01 BMatC= 3.30D-05 BMatP= 1.92D-03
 IDIUse=3 WtCom= 9.97D-01 WtEn= 2.76D-03
 Coeff-Com: -0.101D-01 0.159D+00 0.175D+00 0.676D+00
 Coeff-En:   0.000D+00 0.000D+00 0.000D+00 0.100D+01
 Coeff:     -0.101D-01 0.159D+00 0.174D+00 0.677D+00
 Gap=     0.235 Goal=   None    Shift=    0.000
 Gap=     0.083 Goal=   None    Shift=    0.000
 RMSDP=5.00D-05 MaxDP=4.67D-03 DE=-4.48D-04 OVMax= 8.54D-04

 Cycle   5  Pass 1  IDiag  1:
 RMSU=  3.16D-05    CP:  8.69D-01  1.02D+00  5.21D-01  7.99D-01
 E= -529.204588025574     Delta-E=       -0.000003997553 Rises=F Damp=F
 DIIS: error= 1.27D-04 at cycle   5 NSaved=   5.
 NSaved= 5 IEnMin= 5 EnMin= -529.204588025574     IErMin= 5 ErrMin= 1.27D-04
 ErrMax= 1.27D-04  0.00D+00 EMaxC= 1.00D-01 BMatC= 1.01D-05 BMatP= 3.30D-05
 IDIUse=3 WtCom= 9.99D-01 WtEn= 1.27D-03
 Coeff-Com: -0.368D-02 0.315D-01 0.473D-01 0.372D+00 0.553D+00
 Coeff-En:   0.000D+00 0.000D+00 0.000D+00 0.190D+00 0.810D+00
 Coeff:     -0.368D-02 0.315D-01 0.473D-01 0.371D+00 0.553D+00
 Gap=     0.235 Goal=   None    Shift=    0.000
 Gap=     0.083 Goal=   None    Shift=    0.000
 RMSDP=2.61D-05 MaxDP=1.28D-03 DE=-4.00D-06 OVMax= 5.35D-04

 Cycle   6  Pass 1  IDiag  1:
 RMSU=  1.37D-05    CP:  8.69D-01  1.02D+00  5.14D-01  8.27D-01  9.10D-01
 E= -529.204590140749     Delta-E=       -0.000002115175 Rises=F Damp=F
 DIIS: error= 4.86D-05 at cycle   6 NSaved=   6.
 NSaved= 6 IEnMin= 6 EnMin= -529.204590140749     IErMin= 6 ErrMin= 4.86D-05
 ErrMax= 4.86D-05  0.00D+00 EMaxC= 1.00D-01 BMatC= 5.25D-07 BMatP= 1.01D-05
 IDIUse=1 WtCom= 1.00D+00 WtEn= 0.00D+00
 Coeff-Com:  0.225D-03-0.907D-02-0.653D-02 0.257D-01 0.170D+00 0.820D+00
 Coeff:      0.225D-03-0.907D-02-0.653D-02 0.257D-01 0.170D+00 0.820D+00
 Gap=     0.235 Goal=   None    Shift=    0.000
 Gap=     0.083 Goal=   None    Shift=    0.000
 RMSDP=1.29D-05 MaxDP=7.65D-04 DE=-2.12D-06 OVMax= 4.16D-04

 Cycle   7  Pass 1  IDiag  1:
 RMSU=  7.24D-06    CP:  8.69D-01  1.02D+00  5.22D-01  8.38D-01  1.04D+00
                    CP:  1.05D+00
 E= -529.204590393301     Delta-E=       -0.000000252552 Rises=F Damp=F
 DIIS: error= 2.08D-05 at cycle   7 NSaved=   7.
 NSaved= 7 IEnMin= 7 EnMin= -529.204590393301     IErMin= 7 ErrMin= 2.08D-05
 ErrMax= 2.08D-05  0.00D+00 EMaxC= 1.00D-01 BMatC= 2.20D-07 BMatP= 5.25D-07
 IDIUse=1 WtCom= 1.00D+00 WtEn= 0.00D+00
 Coeff-Com:  0.823D-03-0.115D-01-0.143D-01-0.669D-01-0.266D-01 0.446D+00
 Coeff-Com:  0.672D+00
 Coeff:      0.823D-03-0.115D-01-0.143D-01-0.669D-01-0.266D-01 0.446D+00
 Coeff:      0.672D+00
 Gap=     0.235 Goal=   None    Shift=    0.000
 Gap=     0.083 Goal=   None    Shift=    0.000
 RMSDP=5.62D-06 MaxDP=4.51D-04 DE=-2.53D-07 OVMax= 2.03D-04

 Cycle   8  Pass 1  IDiag  1:
 RMSU=  2.96D-06    CP:  8.69D-01  1.02D+00  5.22D-01  8.48D-01  1.08D+00
                    CP:  1.26D+00  1.42D+00
 E= -529.204590499706     Delta-E=       -0.000000106405 Rises=F Damp=F
 DIIS: error= 1.47D-05 at cycle   8 NSaved=   8.
 NSaved= 8 IEnMin= 8 EnMin= -529.204590499706     IErMin= 8 ErrMin= 1.47D-05
 ErrMax= 1.47D-05  0.00D+00 EMaxC= 1.00D-01 BMatC= 3.56D-08 BMatP= 2.20D-07
 IDIUse=1 WtCom= 1.00D+00 WtEn= 0.00D+00
 Coeff-Com:  0.185D-03 0.655D-04-0.250D-02-0.325D-01-0.782D-01-0.167D+00
 Coeff-Com:  0.177D+00 0.110D+01
 Coeff:      0.185D-03 0.655D-04-0.250D-02-0.325D-01-0.782D-01-0.167D+00
 Coeff:      0.177D+00 0.110D+01
 Gap=     0.235 Goal=   None    Shift=    0.000
 Gap=     0.083 Goal=   None    Shift=    0.000
 RMSDP=5.58D-06 MaxDP=3.00D-04 DE=-1.06D-07 OVMax= 2.44D-04

 Cycle   9  Pass 1  IDiag  1:
 RMSU=  1.26D-06    CP:  8.69D-01  1.02D+00  5.20D-01  8.53D-01  1.13D+00
                    CP:  1.51D+00  1.83D+00  1.45D+00
 E= -529.204590544176     Delta-E=       -0.000000044471 Rises=F Damp=F
 DIIS: error= 5.80D-06 at cycle   9 NSaved=   9.
 NSaved= 9 IEnMin= 9 EnMin= -529.204590544176     IErMin= 9 ErrMin= 5.80D-06
 ErrMax= 5.80D-06  0.00D+00 EMaxC= 1.00D-01 BMatC= 8.05D-09 BMatP= 3.56D-08
 IDIUse=1 WtCom= 1.00D+00 WtEn= 0.00D+00
 Coeff-Com: -0.913D-04 0.246D-02 0.223D-02 0.280D-02-0.193D-01-0.137D+00
 Coeff-Com: -0.497D-01 0.433D+00 0.765D+00
 Coeff:     -0.913D-04 0.246D-02 0.223D-02 0.280D-02-0.193D-01-0.137D+00
 Coeff:     -0.497D-01 0.433D+00 0.765D+00
 Gap=     0.235 Goal=   None    Shift=    0.000
 Gap=     0.083 Goal=   None    Shift=    0.000
 RMSDP=1.60D-06 MaxDP=7.98D-05 DE=-4.45D-08 OVMax= 6.88D-05

 Cycle  10  Pass 1  IDiag  1:
 RMSU=  4.28D-07    CP:  8.69D-01  1.02D+00  5.21D-01  8.53D-01  1.15D+00
                    CP:  1.54D+00  1.97D+00  1.58D+00  1.13D+00
 E= -529.204590549776     Delta-E=       -0.000000005600 Rises=F Damp=F
 DIIS: error= 2.39D-06 at cycle  10 NSaved=  10.
 NSaved=10 IEnMin=10 EnMin= -529.204590549776     IErMin=10 ErrMin= 2.39D-06
 ErrMax= 2.39D-06  0.00D+00 EMaxC= 1.00D-01 BMatC= 1.44D-09 BMatP= 8.05D-09
 IDIUse=1 WtCom= 1.00D+00 WtEn= 0.00D+00
 Coeff-Com: -0.663D-04 0.711D-03 0.119D-02 0.646D-02 0.636D-02-0.177D-01
 Coeff-Com: -0.570D-01-0.956D-01 0.229D+00 0.927D+00
 Coeff:     -0.663D-04 0.711D-03 0.119D-02 0.646D-02 0.636D-02-0.177D-01
 Coeff:     -0.570D-01-0.956D-01 0.229D+00 0.927D+00
 Gap=     0.235 Goal=   None    Shift=    0.000
 Gap=     0.083 Goal=   None    Shift=    0.000
 RMSDP=1.00D-06 MaxDP=4.64D-05 DE=-5.60D-09 OVMax= 4.89D-05

 Cycle  11  Pass 1  IDiag  1:
 RMSU=  1.94D-07    CP:  8.69D-01  1.02D+00  5.21D-01  8.54D-01  1.15D+00
                    CP:  1.57D+00  2.07D+00  1.67D+00  1.26D+00  1.19D+00
 E= -529.204590551182     Delta-E=       -0.000000001405 Rises=F Damp=F
 DIIS: error= 9.36D-07 at cycle  11 NSaved=  11.
 NSaved=11 IEnMin=11 EnMin= -529.204590551182     IErMin=11 ErrMin= 9.36D-07
 ErrMax= 9.36D-07  0.00D+00 EMaxC= 1.00D-01 BMatC= 2.86D-10 BMatP= 1.44D-09
 IDIUse=1 WtCom= 1.00D+00 WtEn= 0.00D+00
 Coeff-Com: -0.264D-05-0.270D-03-0.362D-04 0.217D-02 0.644D-02 0.246D-01
 Coeff-Com: -0.764D-02-0.116D+00-0.840D-01 0.327D+00 0.847D+00
 Coeff:     -0.264D-05-0.270D-03-0.362D-04 0.217D-02 0.644D-02 0.246D-01
 Coeff:     -0.764D-02-0.116D+00-0.840D-01 0.327D+00 0.847D+00
 Gap=     0.235 Goal=   None    Shift=    0.000
 Gap=     0.083 Goal=   None    Shift=    0.000
 RMSDP=3.02D-07 MaxDP=1.47D-05 DE=-1.41D-09 OVMax= 1.35D-05

 Cycle  12  Pass 1  IDiag  1:
 RMSU=  5.78D-08    CP:  8.69D-01  1.02D+00  5.21D-01  8.54D-01  1.15D+00
                    CP:  1.58D+00  2.07D+00  1.69D+00  1.34D+00  1.41D+00
                    CP:  9.30D-01
 E= -529.204590551315     Delta-E=       -0.000000000133 Rises=F Damp=F
 DIIS: error= 3.36D-07 at cycle  12 NSaved=  12.
 NSaved=12 IEnMin=12 EnMin= -529.204590551315     IErMin=12 ErrMin= 3.36D-07
 ErrMax= 3.36D-07  0.00D+00 EMaxC= 1.00D-01 BMatC= 4.13D-11 BMatP= 2.86D-10
 IDIUse=1 WtCom= 1.00D+00 WtEn= 0.00D+00
 Coeff-Com:  0.683D-05-0.217D-03-0.185D-03 0.392D-04 0.179D-02 0.125D-01
 Coeff-Com:  0.326D-02-0.386D-01-0.641D-01 0.342D-01 0.372D+00 0.679D+00
 Coeff:      0.683D-05-0.217D-03-0.185D-03 0.392D-04 0.179D-02 0.125D-01
 Coeff:      0.326D-02-0.386D-01-0.641D-01 0.342D-01 0.372D+00 0.679D+00
 Gap=     0.235 Goal=   None    Shift=    0.000
 Gap=     0.083 Goal=   None    Shift=    0.000
 RMSDP=6.47D-08 MaxDP=2.74D-06 DE=-1.33D-10 OVMax= 4.40D-06

 Cycle  13  Pass 1  IDiag  1:
 RMSU=  2.47D-08    CP:  8.69D-01  1.02D+00  5.21D-01  8.54D-01  1.16D+00
                    CP:  1.58D+00  2.08D+00  1.69D+00  1.35D+00  1.40D+00
                    CP:  1.03D+00  9.77D-01
 E= -529.204590551327     Delta-E=       -0.000000000013 Rises=F Damp=F
 DIIS: error= 1.39D-07 at cycle  13 NSaved=  13.
 NSaved=13 IEnMin=13 EnMin= -529.204590551327     IErMin=13 ErrMin= 1.39D-07
 ErrMax= 1.39D-07  0.00D+00 EMaxC= 1.00D-01 BMatC= 6.63D-12 BMatP= 4.13D-11
 IDIUse=1 WtCom= 1.00D+00 WtEn= 0.00D+00
 Coeff-Com:  0.309D-05-0.579D-04-0.836D-04-0.276D-03-0.125D-03 0.208D-02
 Coeff-Com:  0.170D-02-0.725D-03-0.145D-01-0.289D-01 0.562D-01 0.293D+00
 Coeff-Com:  0.692D+00
 Coeff:      0.309D-05-0.579D-04-0.836D-04-0.276D-03-0.125D-03 0.208D-02
 Coeff:      0.170D-02-0.725D-03-0.145D-01-0.289D-01 0.562D-01 0.293D+00
 Coeff:      0.692D+00
[...]
    R7        2.47272  -0.00001   0.00000  -0.00006  -0.00006   2.47266
    R8        2.72184  -0.00005   0.00000  -0.00015  -0.00015   2.72170
    R9        2.05208  -0.00000   0.00000  -0.00001  -0.00001   2.05207
   R10        2.60663   0.00003   0.00000   0.00007   0.00007   2.60669
   R11        2.44251   0.00004   0.00000   0.00012   0.00012   2.44263
   R12        2.04744  -0.00002   0.00000  -0.00006  -0.00006   2.04738
    A1        2.16191   0.00004   0.00000   0.00025   0.00025   2.16216
    A2        2.02611  -0.00003   0.00000  -0.00021  -0.00021   2.02590
    A3        2.09517  -0.00000   0.00000  -0.00004  -0.00004   2.09513
    A4        2.06448  -0.00000   0.00000   0.00003   0.00003   2.06450
    A5        2.08961  -0.00002   0.00000  -0.00025  -0.00025   2.08936
    A6        2.12910   0.00002   0.00000   0.00022   0.00022   2.12932
    A7        2.10307  -0.00002   0.00000  -0.00016  -0.00016   2.10291
    A8        2.09006   0.00001   0.00000   0.00008   0.00008   2.09014
    A9        2.09006   0.00001   0.00000   0.00008   0.00008   2.09014
   A10        2.06448  -0.00000   0.00000   0.00003   0.00003   2.06450
   A11        2.12910   0.00002   0.00000   0.00022   0.00022   2.12932
   A12        2.08961  -0.00002   0.00000  -0.00025  -0.00025   2.08936
   A13        2.16191   0.00004   0.00000   0.00025   0.00025   2.16216
   A14        2.02611  -0.00003   0.00000  -0.00021  -0.00021   2.02590
   A15        2.09517  -0.00000   0.00000  -0.00004  -0.00004   2.09513
   A16        2.01053  -0.00006   0.00000  -0.00039  -0.00039   2.01014
   A17        2.13633   0.00003   0.00000   0.00019   0.00019   2.13652
   A18        2.13633   0.00003   0.00000   0.00019   0.00019   2.13652
    D1        0.00000  -0.00000   0.00000  -0.00000  -0.00000   0.00000
    D2       -3.14159  -0.00000   0.00000  -0.00000  -0.00000   3.14159
    D3        3.14159   0.00000   0.00000   0.00000   0.00000   3.14159
    D4       -0.00000   0.00000   0.00000   0.00000   0.00000   0.00000
    D5       -0.00000   0.00000   0.00000   0.00000   0.00000   0.00000
    D6        3.14159   0.00000   0.00000   0.00000   0.00000   3.14159
    D7       -3.14159  -0.00000   0.00000  -0.00000  -0.00000   3.14159
    D8        0.00000  -0.00000   0.00000  -0.00000  -0.00000   0.00000
    D9       -0.00000   0.00000   0.00000   0.00000   0.00000   0.00000
   D10        3.14159  -0.00000   0.00000  -0.00000   0.00000   3.14159
   D11        3.14159   0.00000   0.00000   0.00000   0.00000   3.14159
   D12        0.00000  -0.00000   0.00000  -0.00000  -0.00000   0.00000
   D13       -0.00000   0.00000   0.00000   0.00000   0.00000   0.00000
   D14        3.14159  -0.00000   0.00000  -0.00000   0.00000   3.14159
   D15        3.14159   0.00000   0.00000   0.00000   0.00000   3.14159
   D16       -0.00000   0.00000   0.00000   0.00000   0.00000   0.00000
   D17        0.00000  -0.00000   0.00000  -0.00000  -0.00000   0.00000
   D18        3.14159   0.00000   0.00000   0.00000   0.00000   3.14159
   D19        3.14159  -0.00000   0.00000  -0.00000   0.00000   3.14159
   D20       -0.00000   0.00000   0.00000   0.00000   0.00000   0.00000
   D21        0.00000   0.00000   0.00000  -0.00000   0.00000   0.00000
   D22        3.14159  -0.00000   0.00000  -0.00000   0.00000   3.14159
   D23        3.14159  -0.00000   0.00000  -0.00000   0.00000   3.14159
   D24        0.00000  -0.00000   0.00000  -0.00000  -0.00000   0.00000
         Item               Value     Threshold  Converged?
 Maximum Force            0.000059     0.000450     YES
 RMS     Force            0.000021     0.000300     YES
 Maximum Displacement     0.000544     0.001800     YES
 RMS     Displacement     0.000165     0.001200     YES
 Predicted change in Energy=-6.229386D-08
 Optimization completed.
    -- Stationary point found.
                           ----------------------------
                           !   Optimized Parameters   !
                           ! (Angstroms and Degrees)  !
 --------------------------                            --------------------------
 ! Name  Definition              Value          Derivative Info.                !
 --------------------------------------------------------------------------------
 ! R1    R(1,2)                  1.4403         -DE/DX =   -0.0001              !
 ! R2    R(1,6)                  1.3794         -DE/DX =    0.0                 !
 ! R3    R(1,12)                 1.2925         -DE/DX =    0.0                 !
 ! R4    R(2,3)                  1.3839         -DE/DX =    0.0                 !
 ! R5    R(2,7)                  1.0859         -DE/DX =    0.0                 !
 ! R6    R(3,4)                  1.3839         -DE/DX =    0.0                 !
 ! R7    R(3,10)                 1.3085         -DE/DX =    0.0                 !
 ! R8    R(4,5)                  1.4403         -DE/DX =   -0.0001              !
 ! R9    R(4,8)                  1.0859         -DE/DX =    0.0                 !
 ! R10   R(5,6)                  1.3794         -DE/DX =    0.0                 !
 ! R11   R(5,11)                 1.2925         -DE/DX =    0.0                 !
 ! R12   R(6,9)                  1.0835         -DE/DX =    0.0                 !
 ! A1    A(2,1,6)              123.8683         -DE/DX =    0.0                 !
 ! A2    A(2,1,12)             116.0874         -DE/DX =    0.0                 !
 ! A3    A(6,1,12)             120.0443         -DE/DX =    0.0                 !
 ! A4    A(1,2,3)              118.2858         -DE/DX =    0.0                 !
 ! A5    A(1,2,7)              119.7258         -DE/DX =    0.0                 !
 ! A6    A(3,2,7)              121.9884         -DE/DX =    0.0                 !
 ! A7    A(2,3,4)              120.4971         -DE/DX =    0.0                 !
 ! A8    A(2,3,10)             119.7515         -DE/DX =    0.0                 !
 ! A9    A(4,3,10)             119.7515         -DE/DX =    0.0                 !
 ! A10   A(3,4,5)              118.2858         -DE/DX =    0.0                 !
 ! A11   A(3,4,8)              121.9884         -DE/DX =    0.0                 !
 ! A12   A(5,4,8)              119.7258         -DE/DX =    0.0                 !
 ! A13   A(4,5,6)              123.8683         -DE/DX =    0.0                 !
 ! A14   A(4,5,11)             116.0874         -DE/DX =    0.0                 !
 ! A15   A(6,5,11)             120.0443         -DE/DX =    0.0                 !
 ! A16   A(1,6,5)              115.1946         -DE/DX =   -0.0001              !
 ! A17   A(1,6,9)              122.4027         -DE/DX =    0.0                 !
 ! A18   A(5,6,9)              122.4027         -DE/DX =    0.0                 !
 ! D1    D(6,1,2,3)              0.0            -DE/DX =    0.0                 !
 ! D2    D(6,1,2,7)            180.0            -DE/DX =    0.0                 !
 ! D3    D(12,1,2,3)           180.0            -DE/DX =    0.0                 !
 ! D4    D(12,1,2,7)             0.0            -DE/DX =    0.0                 !
 ! D5    D(2,1,6,5)              0.0            -DE/DX =    0.0                 !
 ! D6    D(2,1,6,9)            180.0            -DE/DX =    0.0                 !
 ! D7    D(12,1,6,5)           180.0            -DE/DX =    0.0                 !
 ! D8    D(12,1,6,9)             0.0            -DE/DX =    0.0                 !
 ! D9    D(1,2,3,4)              0.0            -DE/DX =    0.0                 !
 ! D10   D(1,2,3,10)           180.0            -DE/DX =    0.0                 !
 ! D11   D(7,2,3,4)            180.0            -DE/DX =    0.0                 !
 ! D12   D(7,2,3,10)             0.0            -DE/DX =    0.0                 !
 ! D13   D(2,3,4,5)              0.0            -DE/DX =    0.0                 !
 ! D14   D(2,3,4,8)            180.0            -DE/DX =    0.0                 !
 ! D15   D(10,3,4,5)           180.0            -DE/DX =    0.0                 !
 ! D16   D(10,3,4,8)             0.0            -DE/DX =    0.0                 !
 ! D17   D(3,4,5,6)              0.0            -DE/DX =    0.0                 !
 ! D18   D(3,4,5,11)           180.0            -DE/DX =    0.0                 !
 ! D19   D(8,4,5,6)            180.0            -DE/DX =    0.0                 !
 ! D20   D(8,4,5,11)             0.0            -DE/DX =    0.0                 !
 ! D21   D(4,5,6,1)              0.0            -DE/DX =    0.0                 !
 ! D22   D(4,5,6,9)            180.0            -DE/DX =    0.0                 !
 ! D23   D(11,5,6,1)           180.0            -DE/DX =    0.0                 !
 ! D24   D(11,5,6,9)             0.0            -DE/DX =    0.0                 !
 --------------------------------------------------------------------------------
 GradGradGradGradGradGradGradGradGradGradGradGradGradGradGradGradGradGrad

 Leave Link  103 at Thu Jan 30 13:13:44 2025, MaxMem=   104857600 cpu:               0.0 elap:               0.0
 (Enter /sw/cluster/pub/apps//g16/l9999.exe)

 ----------------------------------------------------------------------

 Electric dipole moment (input orientation):
 (Debye = 10**-18 statcoulomb cm , SI units = C m)
                  (au)            (Debye)         (10**-30 SI)
   Tot        0.153224D+00      0.389456D+00      0.129908D+01
   x          0.000000D+00      0.000000D+00      0.000000D+00
   y          0.153224D+00      0.389456D+00      0.129908D+01
   z          0.000000D+00      0.000000D+00      0.000000D+00

 Dipole polarizability, Alpha (input orientation).
 (esu units = cm**3 , SI units = C**2 m**2 J**-1)
 Alpha(0;0):
               (au)            (10**-24 esu)      (10**-40 SI)
   iso        0.637499D+02      0.944676D+01      0.105109D+02
   aniso      0.490568D+02      0.726947D+01      0.808837D+01
   xx         0.865948D+02      0.128320D+02      0.142776D+02
   yx         0.000000D+00      0.000000D+00      0.000000D+00
   yy         0.725949D+02      0.107575D+02      0.119693D+02
   zx         0.000000D+00      0.000000D+00      0.000000D+00
   zy         0.000000D+00      0.000000D+00      0.000000D+00
   zz         0.320599D+02      0.475079D+01      0.528597D+01

 ----------------------------------------------------------------------

 Dipole orientation:
     6          2.20077868         -0.00000401          1.35303614
     6          2.27040083         -0.00000399         -1.36791810
     6          0.00000479          0.00000016         -2.66563802
     6         -2.27039591          0.00000416         -1.36792625
     6         -2.20078355          0.00000388          1.35302824
     6         -0.00000495         -0.00000015          2.74983505
     1          4.07789017         -0.00000720         -2.33952613
     1         -4.07788175          0.00000746         -2.33954077
     1         -0.00000862         -0.00000027          4.79727842
     9          0.00000923          0.00000027         -5.13835786
     9         -4.36627500          0.00000770          2.48285681
     9          4.36626607         -0.00000801          2.48287250

 Electric dipole moment (dipole orientation):
 (Debye = 10**-18 statcoulomb cm , SI units = C m)
                  (au)            (Debye)         (10**-30 SI)
   Tot        0.153224D+00      0.389456D+00      0.129908D+01
   x          0.000000D+00      0.000000D+00      0.000000D+00
   y          0.000000D+00      0.000000D+00      0.000000D+00
   z          0.153224D+00      0.389456D+00      0.129908D+01

 Dipole polarizability, Alpha (dipole orientation).
 (esu units = cm**3 , SI units = C**2 m**2 J**-1)
 Alpha(0;0):
               (au)            (10**-24 esu)      (10**-40 SI)
   iso        0.637499D+02      0.944676D+01      0.105109D+02
   aniso      0.490568D+02      0.726947D+01      0.808837D+01
   xx         0.865948D+02      0.128320D+02      0.142776D+02
   yx        -0.979330D-04     -0.145122D-04     -0.161470D-04
   yy         0.320599D+02      0.475079D+01      0.528597D+01
   zx         0.248541D-04      0.368299D-05      0.409788D-05
   zy         0.000000D+00      0.000000D+00      0.000000D+00
   zz         0.725949D+02      0.107575D+02      0.119693D+02

 ----------------------------------------------------------------------
 1\1\GINC-N02\Freq\UPBE1PBE\6-311++G(d,p)\C6H3F3(1+,2)\UNKNOWN\30-Jan-2
 025\0\\#P Geom=AllCheck Guess=TCheck SCRF=Check GenChk UPBE1PBE/6-311+
 +G(d,p) Freq\\1 3 5-DFB SP\\1,2\C,1.1646032095,0.7159937998,-0.0000000
 125\C,1.2014430771,-0.7238732462,-0.0000000048\C,-0.000000001,-1.41059
 48902,-0.0000000037\C,-1.201443074,-0.7238732415,-0.0000000007\C,-1.16
 4603216,0.715993802,0.0000000018\C,-0.0000000024,1.4551500435,-0.00000
 00036\H,2.1579243222,-1.2380277882,-0.0000000008\H,-2.1579243136,-1.23
 80277842,0.0000000007\H,0.0000000008,2.5386104154,0.0000000023\F,-0.00
 00000001,-2.7191018804,0.0000000075\F,-2.3105308638,1.3138753938,0.000
 0000015\F,2.3105308613,1.3138753923,0.0000000133\\Version=ES64L-G16Rev
 A.03\HF=-529.2052466\S2=0.770763\S2-1=0.\S2A=0.750182\RMSD=3.213e-09\R
 MSF=4.163e-05\ZeroPoint=0.0733322\Thermal=0.0801031\Dipole=0.0000003,0
 .1700259,0.\DipoleDeriv=1.6454062,0.3686265,0.,0.6878537,0.8442343,0.,
 0.,0.,0.2767937,0.5122114,-0.1304531,0.,-0.0779898,-0.3107109,0.,0.,0.
 ,0.0390377,-0.949077,0.0000002,0.,0.,1.6265554,0.,0.,0.,0.178018,0.512
 2112,0.130453,0.,0.0779899,-0.3107109,0.,0.,0.,0.0390377,1.645406,-0.3
 686263,0.,-0.6878538,0.8442345,0.,0.,0.,0.2767937,-0.8157218,-0.000000
 1,0.,0.,-0.1992988,0.,0.,0.,-0.133822,0.2147784,-0.0457314,0.,-0.04441
 16,0.1344554,0.,0.,0.,0.1681604,0.2147785,0.0457314,0.,0.0444116,0.134
 4554,0.,0.,0.,0.1681604,0.1244647,0.,0.,0.,0.2155191,0.,0.,0.,0.206465
 7,-0.0272113,0.,0.,0.,-1.2281522,0.,0.,0.,-0.0908941,-1.0386231,0.4050
 725,0.,0.521303,-0.3752907,0.,0.,0.,-0.0638756,-1.0386231,-0.4050726,0
 .,-0.521303,-0.3752908,0.,0.,0.,-0.0638756\Polar=86.5948285,-0.0000003
 ,72.5949009,0.,0.,32.0599197\Quadrupole=3.5462527,1.1175607,-4.6638134
 ,0.,0.,0.\PG=C01 [X(C6H3F3)]\NImag=1\\0.72705036,0.04321005,0.60060047
 ,0.,0.,0.15590522,-0.07080530,-0.01635371,0.,0.71669824,0.03700050,-0.
 29949836,0.,-0.02605352,0.62761743,0.,0.,-0.05872140,0.,0.,0.11081900,
 -0.10853239,0.12416095,0.,-0.16833038,-0.00677235,0.,0.28763520,-0.031
 65228,-0.02751464,0.,-0.12209384,-0.16529033,0.,-0.00000002,0.75593161
 ,0.,0.,-0.00504141,0.,0.,-0.05143994,0.,0.,0.12466490,0.03436355,-0.04
 668668,0.,-0.09753753,-0.02892084,0.,-0.16833042,0.12209385,0.,0.71669
 827,-0.01222624,-0.00904073,0.,0.02892084,0.06638213,0.,0.00677237,-0.
 16529033,0.,0.02605353,0.62761743,0.,0.,0.00299612,0.,0.,-0.00138843,0
 .,0.,-0.05143992,0.,0.,0.11081896,-0.12443655,0.07232703,0.,0.03436356
 ,0.01222624,0.,-0.10853238,0.03165228,0.,-0.07080531,-0.03700051,0.,0.
 72705035,-0.07232704,0.13288445,0.,0.04668669,-0.00904073,0.,-0.124160
 95,-0.02751465,0.,0.01635370,-0.29949836,0.,-0.04321003,0.60060046,0.,
 0.,-0.01346346,0.,0.,0.00299611,0.,0.,-0.00504143,0.,0.,-0.05872136,0.
 ,0.,0.15590518,-0.17670573,0.00947902,0.,-0.05998056,-0.01888524,0.,0.
 20931160,0.,0.,-0.05998054,0.01888524,0.,-0.17670572,-0.00947902,0.,0.
 55748906,0.15470741,-0.22053937,0.,0.02570909,-0.01933832,0.,0.,0.0046
 0222,0.,-0.02570909,-0.01933832,0.,-0.15470741,-0.22053936,0.,0.,0.805
 84448,0.,0.,-0.05634469,0.,0.,0.00475594,0.,0.,0.00769785,0.,0.,0.0047
 5592,0.,0.,-0.05634466,0.,0.,0.09677119,0.00896871,-0.00494690,0.,-0.2
 9017245,0.12102061,0.,-0.00576703,0.01369538,0.,-0.00609383,-0.0014695
 3,0.,0.00172942,0.00231044,0.,-0.00357198,-0.00182544,0.,0.29489530,0.
 02721622,-0.00878981,0.,0.12263918,-0.12249977,0.,-0.01754029,0.015000
 08,0.,-0.00269507,-0.00263106,0.,-0.00166455,-0.00231267,0.,-0.0001280
 3,-0.00489783,0.,-0.13046875,0.12157997,0.,0.,0.00423273,0.,0.,-0.0346
 6333,0.,0.,0.01071536,0.,0.,0.00591615,0.,0.,-0.00061123,0.,0.,0.00187
 576,0.,0.,0.01971601,0.00172942,-0.00231044,0.,-0.00609383,0.00146953,
 0.,-0.00576701,-0.01369538,0.,-0.29017247,-0.12102061,0.,0.00896871,0.
 00494690,0.,-0.00357198,0.00182543,0.,-0.00056832,-0.00063540,0.,0.294
 89530,0.00166455,-0.00231267,0.,0.00269506,-0.00263106,0.,0.01754029,0
 .01500008,0.,-0.12263919,-0.12249977,0.,-0.02721621,-0.00878981,0.,0.0
 0012803,-0.00489783,0.,0.00063540,0.00077730,0.,0.13046875,0.12157997,
 0.,0.,-0.00061123,0.,0.,0.00591615,0.,0.,0.01071536,0.,0.,-0.03466332,
 0.,0.,0.00423272,0.,0.,0.00187576,0.,0.,-0.00232454,0.,0.,0.01971601,0
 .00703907,0.02664019,0.,-0.00669721,0.00073965,0.,0.00404517,0.,0.,-0.
 00669721,-0.00073965,0.,0.00703907,-0.02664019,0.,-0.05903448,0.,0.,0.
 00034359,0.00117610,0.,0.00034359,-0.00117610,0.,0.05035046,-0.0007640
 1,-0.00812577,0.,0.00124328,0.00087769,0.,0.,-0.00024373,0.,-0.0012432
 8,0.00087769,0.,0.00076400,-0.00812577,0.,0.,-0.35572845,0.,-0.0001173
 3,-0.00013725,0.,0.00011733,-0.00013725,0.,0.,0.36889184,0.,0.,0.00329
 594,0.,0.,0.00544588,0.,0.,-0.00115485,0.,0.,0.00544588,0.,0.,0.003295
 94,0.,0.,-0.03073796,0.,0.,0.00047273,0.,0.,0.00047273,0.,0.,0.0227799
 6,0.00293303,-0.01037611,0.,-0.00672696,-0.05081455,0.,-0.03904372,0.,
 0.,-0.00672695,0.05081455,0.,0.00293303,0.01037611,0.,-0.01536539,0.,0
 .,0.00140697,0.00203125,0.,0.00140697,-0.00203125,0.,-0.00014020,0.,0.
 ,0.06753046,0.00034043,0.00591216,0.,-0.01020466,-0.04905164,0.,0.,-0.
 39713340,0.,0.01020466,-0.04905163,0.,-0.00034043,0.00591216,0.,0.,-0.
 00354085,0.,0.00118752,0.00034081,0.,-0.00118752,0.00034081,0.,0.,0.00
 061927,0.,0.,0.49214298,0.,0.,0.00716477,0.,0.,0.00773539,0.,0.,-0.044
 38274,0.,0.,0.00773539,0.,0.,0.00716477,0.,0.,-0.00160353,0.,0.,-0.004
 04296,0.,0.,-0.00404296,0.,0.,-0.00045901,0.,0.,0.02496300,0.03115940,
 -0.03267539,0.,-0.01757246,-0.00940782,0.,0.05165568,-0.00263024,0.,-0
 .02714511,0.03160219,0.,-0.33276357,0.16246800,0.,-0.10594215,0.028762
 14,0.,-0.00026091,0.00019521,0.,-0.00090946,0.00012587,0.,0.00170408,0
 .00145660,0.,-0.00410362,0.00258958,0.,0.41913469,-0.00982168,-0.00251
 574,0.,0.00244667,0.00477524,0.,-0.01220135,-0.00377345,0.,0.05563508,
 -0.03230229,0.,0.13734791,-0.16106000,0.,0.00086117,0.01918681,0.,-0.0
 0009608,0.00032035,0.,-0.00007468,0.00324989,0.,0.00192915,0.00061586,
 0.,0.00304624,-0.00324533,0.,-0.18077928,0.17254543,0.,0.,0.00918805,0
 .,0.,-0.00105360,0.,0.,0.00235340,0.,0.,0.00959822,0.,0.,-0.04860062,0
 .,0.,0.01364920,0.,0.,0.00031981,0.,0.,-0.00160649,0.,0.,-0.00442862,0
 .,0.,-0.00011607,0.,0.,0.02303835,-0.33276356,-0.16246801,0.,-0.027145
 11,-0.03160219,0.,0.05165568,0.00263024,0.,-0.01757246,0.00940782,0.,0
 .03115940,0.03267538,0.,-0.10594214,-0.02876213,0.,-0.00090946,-0.0001
 2587,0.,-0.00026091,-0.00019521,0.,0.00170408,-0.00145660,0.,-0.004103
 62,-0.00258958,0.,-0.01495656,0.00170686,0.,0.41913468,-0.13734791,-0.
 16106000,0.,-0.05563508,-0.03230229,0.,0.01220135,-0.00377345,0.,-0.00
 244667,0.00477524,0.,0.00982168,-0.00251574,0.,-0.00086116,0.01918682,
 0.,0.00007468,0.00324989,0.,0.00009608,0.00032035,0.,-0.00192915,0.000
 61586,0.,-0.00304624,-0.00324533,0.,-0.00170686,0.00220322,0.,0.180779
 28,0.17254543,0.,0.,-0.04860063,0.,0.,0.00959822,0.,0.,0.00235340,0.,0
 .,-0.00105360,0.,0.,0.00918804,0.,0.,0.01364921,0.,0.,-0.00160649,0.,0
 .,0.00031981,0.,0.,-0.00442862,0.,0.,-0.00011607,0.,0.,-0.00234163,0.,
 0.,0.02303835\\0.00005831,0.00011782,0.,-0.00002595,-0.00004316,0.,-0.
 00000001,0.00002836,0.,0.00002596,-0.00004315,0.,-0.00005834,0.0001178
 2,0.,0.,-0.00013265,0.,-0.00000703,-0.00002047,0.,0.00000704,-0.000020
 47,0.,0.,0.00001770,0.,0.,-0.00001126,0.,0.00003819,-0.00000527,0.,-0.
 00003817,-0.00000526,0.\\\@


 There are more things in heaven and earth, Horatio,
 than are dreamt of in your philosophy.
                   -- Hamlet, Act I, Scene 5
 Job cpu time:       0 days  0 hours  7 minutes  2.3 seconds.
 Elapsed time:       0 days  0 hours  7 minutes  2.9 seconds.
 File lengths (MBytes):  RWF=    132 Int=      0 D2E=      0 Chk=      6 Scr=      1
 Normal termination of Gaussian 16 at Thu Jan 30 13:13:44 2025.
