 Entering Gaussian System, Link 0=g16
 Initial command:
 /sw/cluster/pub/apps//g16/l1.exe "/data/natrosa/28484/Gau-93696.inp" -scrdir="/data/natrosa/28484/"
 Entering Link 1 = /sw/cluster/pub/apps//g16/l1.exe PID=     93697.
  
 Copyright (c) 1988,1990,1992,1993,1995,1998,2003,2009,2016,
            Gaussian, Inc.  All Rights Reserved.
  
 This is part of the Gaussian(R) 16 program.  It is based on
 the Gaussian(R) 09 system (copyright 2009, Gaussian, Inc.),
 the Gaussian(R) 03 system (copyright 2003, Gaussian, Inc.),
 the Gaussian(R) 98 system (copyright 1998, Gaussian, Inc.),
 the Gaussian(R) 94 system (copyright 1995, Gaussian, Inc.),
 the Gaussian 92(TM) system (copyright 1992, Gaussian, Inc.),
 the Gaussian 90(TM) system (copyright 1990, Gaussian, Inc.),
 the Gaussian 88(TM) system (copyright 1988, Gaussian, Inc.),
 the Gaussian 86(TM) system (copyright 1986, Carnegie Mellon
 University), and the Gaussian 82(TM) system (copyright 1983,
 Carnegie Mellon University). Gaussian is a federally registered
 trademark of Gaussian, Inc.
  
 This software contains proprietary and confidential information,
 including trade secrets, belonging to Gaussian, Inc.
  
 This software is provided under written license and may be
 used, copied, transmitted, or stored only in accord with that
 written license.
  
 The following legend is applicable only to US Government
 contracts under FAR:
  
                    RESTRICTED RIGHTS LEGEND
  
 Use, reproduction and disclosure by the US Government is
 subject to restrictions as set forth in subparagraphs (a)
 and (c) of the Commercial Computer Software - Restricted
 Rights clause in FAR 52.227-19.
  
 Gaussian, Inc.
 340 Quinnipiac St., Bldg. 40, Wallingford CT 06492
  
  
 ---------------------------------------------------------------
 Warning -- This program may not be used in any manner that
 competes with the business of Gaussian, Inc. or will provide
 assistance to any competitor of Gaussian, Inc.  The licensee
 of this program is prohibited from giving any competitor of
 Gaussian, Inc. access to this program.  By using this program,
 the user acknowledges that Gaussian, Inc. is engaged in the
 business of creating and licensing software in the field of
 computational chemistry and represents and warrants to the
 licensee that it is not a competitor of Gaussian, Inc. and that
 it will not use this program in any manner prohibited above.
 ---------------------------------------------------------------
  

 Cite this work as:
 Gaussian 16, Revision A.03,
 M. J. Frisch, G. W. Trucks, H. B. Schlegel, G. E. Scuseria, 
 M. A. Robb, J. R. Cheeseman, G. Scalmani, V. Barone, 
 G. A. Petersson, H. Nakatsuji, X. Li, M. Caricato, A. V. Marenich, 
 J. Bloino, B. G. Janesko, R. Gomperts, B. Mennucci, H. P. Hratchian, 
 J. V. Ortiz, A. F. Izmaylov, J. L. Sonnenberg, D. Williams-Young, 
 F. Ding, F. Lipparini, F. Egidi, J. Goings, B. Peng, A. Petrone, 
 T. Henderson, D. Ranasinghe, V. G. Zakrzewski, J. Gao, N. Rega, 
 G. Zheng, W. Liang, M. Hada, M. Ehara, K. Toyota, R. Fukuda, 
 J. Hasegawa, M. Ishida, T. Nakajima, Y. Honda, O. Kitao, H. Nakai, 
 T. Vreven, K. Throssell, J. A. Montgomery, Jr., J. E. Peralta, 
 F. Ogliaro, M. J. Bearpark, J. J. Heyd, E. N. Brothers, K. N. Kudin, 
 V. N. Staroverov, T. A. Keith, R. Kobayashi, J. Normand, 
 K. Raghavachari, A. P. Rendell, J. C. Burant, S. S. Iyengar, 
 J. Tomasi, M. Cossi, J. M. Millam, M. Klene, C. Adamo, R. Cammi, 
 J. W. Ochterski, R. L. Martin, K. Morokuma, O. Farkas, 
 J. B. Foresman, and D. J. Fox, Gaussian, Inc., Wallingford CT, 2016.
 
 ******************************************
 Gaussian 16:  ES64L-G16RevA.03 25-Dec-2016
                30-Jan-2025 
 ******************************************
 %chk=benzene-ANI.chk
 --------------------------------------------------------
 #p opt freq nosymm PBE1PBE/6-311++G(d,p) density=current
 --------------------------------------------------------
 1/18=20,19=15,26=3,38=1/1,3;
 2/9=110,12=2,15=1,17=6,18=5,40=1/2;
 3/5=4,6=6,7=1111,11=2,25=1,30=1,71=1,74=-13/1,2,3;
 4//1;
 5/5=2,38=5/2;
 6/7=2,8=2,9=2,10=2,22=-1,28=1/1;
 7/30=1/1,2,3,16;
 1/18=20,19=15,26=3/3(2);
 2/9=110,15=1/2;
 99//99;
 2/9=110,15=1/2;
 3/5=4,6=6,7=1111,11=2,25=1,30=1,71=1,74=-13/1,2,3;
 4/5=5,16=3,69=1/1;
 5/5=2,38=5/2;
 7/30=1/1,2,3,16;
 1/18=20,19=15,26=3/3(-5);
 2/9=110,15=1/2;
 6/7=2,8=2,9=2,10=2,19=2,22=-1,28=1/1;
 99/9=1/99;
 Leave Link    1 at Thu Jan 30 14:33:03 2025, MaxMem=           0 cpu:               0.0 elap:               0.0
 (Enter /sw/cluster/pub/apps//g16/l101.exe)
 ----------
 benzene SP
 ----------
 Symbolic Z-matrix:
 Charge = -1 Multiplicity = 2
 C                    -0.69534   1.20431   0. 
 C                     0.69534   1.20431   0. 
 C                     1.39071   0.        0. 
 C                     0.69534  -1.20431   0. 
 C                    -0.69534  -1.20431   0. 
 C                    -1.39071  0.         0. 
 H                    -1.23796   2.14423   0. 
 H                     1.23796   2.14424   0. 
 H                     2.47601   0.        0. 
 H                     1.23796  -2.14423   0. 
 H                    -1.23796  -2.14424   0. 
 H                    -2.47601  0.         0. 
 
 ITRead=  0  0  0  0  0  0  0  0  0  0  0  0
 MicOpt= -1 -1 -1 -1 -1 -1 -1 -1 -1 -1 -1 -1
 NAtoms=     12 NQM=       12 NQMF=       0 NMMI=      0 NMMIF=      0
                NMic=       0 NMicF=      0.
                    Isotopes and Nuclear Properties:
 (Nuclear quadrupole moments (NQMom) in fm**2, nuclear magnetic moments (NMagM)
  in nuclear magnetons)

  Atom         1           2           3           4           5           6           7           8           9          10
 IAtWgt=          12          12          12          12          12          12           1           1           1           1
 AtmWgt=  12.0000000  12.0000000  12.0000000  12.0000000  12.0000000  12.0000000   1.0078250   1.0078250   1.0078250   1.0078250
 NucSpn=           0           0           0           0           0           0           1           1           1           1
 AtZEff=  -0.0000000  -0.0000000  -0.0000000  -0.0000000  -0.0000000  -0.0000000  -0.0000000  -0.0000000  -0.0000000  -0.0000000
 NQMom=    0.0000000   0.0000000   0.0000000   0.0000000   0.0000000   0.0000000   0.0000000   0.0000000   0.0000000   0.0000000
 NMagM=    0.0000000   0.0000000   0.0000000   0.0000000   0.0000000   0.0000000   2.7928460   2.7928460   2.7928460   2.7928460
 AtZNuc=   6.0000000   6.0000000   6.0000000   6.0000000   6.0000000   6.0000000   1.0000000   1.0000000   1.0000000   1.0000000

  Atom        11          12
 IAtWgt=           1           1
 AtmWgt=   1.0078250   1.0078250
 NucSpn=           1           1
 AtZEff=  -0.0000000  -0.0000000
 NQMom=    0.0000000   0.0000000
 NMagM=    2.7928460   2.7928460
 AtZNuc=   1.0000000   1.0000000
 Leave Link  101 at Thu Jan 30 14:33:03 2025, MaxMem=   104857600 cpu:               0.0 elap:               0.0
 (Enter /sw/cluster/pub/apps//g16/l103.exe)

 GradGradGradGradGradGradGradGradGradGradGradGradGradGradGradGradGradGrad
 Berny optimization.
 Initialization pass.
                           ----------------------------
                           !    Initial Parameters    !
                           ! (Angstroms and Degrees)  !
 --------------------------                            --------------------------
 ! Name  Definition              Value          Derivative Info.                !
 --------------------------------------------------------------------------------
 ! R1    R(1,2)                  1.3907         estimate D2E/DX2                !
 ! R2    R(1,6)                  1.3906         estimate D2E/DX2                !
 ! R3    R(1,7)                  1.0853         estimate D2E/DX2                !
 ! R4    R(2,3)                  1.3906         estimate D2E/DX2                !
 ! R5    R(2,8)                  1.0853         estimate D2E/DX2                !
 ! R6    R(3,4)                  1.3906         estimate D2E/DX2                !
 ! R7    R(3,9)                  1.0853         estimate D2E/DX2                !
 ! R8    R(4,5)                  1.3907         estimate D2E/DX2                !
 ! R9    R(4,10)                 1.0853         estimate D2E/DX2                !
 ! R10   R(5,6)                  1.3906         estimate D2E/DX2                !
 ! R11   R(5,11)                 1.0853         estimate D2E/DX2                !
 ! R12   R(6,12)                 1.0853         estimate D2E/DX2                !
 ! A1    A(2,1,6)              120.0022         estimate D2E/DX2                !
 ! A2    A(2,1,7)              119.9976         estimate D2E/DX2                !
 ! A3    A(6,1,7)              120.0002         estimate D2E/DX2                !
 ! A4    A(1,2,3)              120.0022         estimate D2E/DX2                !
 ! A5    A(1,2,8)              119.9976         estimate D2E/DX2                !
 ! A6    A(3,2,8)              120.0002         estimate D2E/DX2                !
 ! A7    A(2,3,4)              119.9956         estimate D2E/DX2                !
 ! A8    A(2,3,9)              120.0022         estimate D2E/DX2                !
 ! A9    A(4,3,9)              120.0022         estimate D2E/DX2                !
 ! A10   A(3,4,5)              120.0022         estimate D2E/DX2                !
 ! A11   A(3,4,10)             120.0002         estimate D2E/DX2                !
 ! A12   A(5,4,10)             119.9976         estimate D2E/DX2                !
 ! A13   A(4,5,6)              120.0022         estimate D2E/DX2                !
 ! A14   A(4,5,11)             119.9976         estimate D2E/DX2                !
 ! A15   A(6,5,11)             120.0002         estimate D2E/DX2                !
 ! A16   A(1,6,5)              119.9956         estimate D2E/DX2                !
 ! A17   A(1,6,12)             120.0022         estimate D2E/DX2                !
 ! A18   A(5,6,12)             120.0022         estimate D2E/DX2                !
 ! D1    D(6,1,2,3)              0.0            estimate D2E/DX2                !
 ! D2    D(6,1,2,8)            180.0            estimate D2E/DX2                !
 ! D3    D(7,1,2,3)            180.0            estimate D2E/DX2                !
 ! D4    D(7,1,2,8)              0.0            estimate D2E/DX2                !
 ! D5    D(2,1,6,5)              0.0            estimate D2E/DX2                !
 ! D6    D(2,1,6,12)           180.0            estimate D2E/DX2                !
 ! D7    D(7,1,6,5)            180.0            estimate D2E/DX2                !
 ! D8    D(7,1,6,12)             0.0            estimate D2E/DX2                !
 ! D9    D(1,2,3,4)              0.0            estimate D2E/DX2                !
 ! D10   D(1,2,3,9)            180.0            estimate D2E/DX2                !
 ! D11   D(8,2,3,4)            180.0            estimate D2E/DX2                !
 ! D12   D(8,2,3,9)              0.0            estimate D2E/DX2                !
 ! D13   D(2,3,4,5)              0.0            estimate D2E/DX2                !
 ! D14   D(2,3,4,10)           180.0            estimate D2E/DX2                !
 ! D15   D(9,3,4,5)            180.0            estimate D2E/DX2                !
 ! D16   D(9,3,4,10)             0.0            estimate D2E/DX2                !
 ! D17   D(3,4,5,6)              0.0            estimate D2E/DX2                !
 ! D18   D(3,4,5,11)           180.0            estimate D2E/DX2                !
 ! D19   D(10,4,5,6)           180.0            estimate D2E/DX2                !
 ! D20   D(10,4,5,11)            0.0            estimate D2E/DX2                !
 ! D21   D(4,5,6,1)              0.0            estimate D2E/DX2                !
 ! D22   D(4,5,6,12)           180.0            estimate D2E/DX2                !
 ! D23   D(11,5,6,1)           180.0            estimate D2E/DX2                !
 ! D24   D(11,5,6,12)            0.0            estimate D2E/DX2                !
 --------------------------------------------------------------------------------
 Trust Radius=3.00D-01 FncErr=1.00D-07 GrdErr=1.00D-06 EigMax=2.50D+02 EigMin=1.00D-04
 Number of steps in this run=     64 maximum allowed number of steps=    100.
 GradGradGradGradGradGradGradGradGradGradGradGradGradGradGradGradGradGrad

 Leave Link  103 at Thu Jan 30 14:33:03 2025, MaxMem=   104857600 cpu:               0.0 elap:               0.0
 (Enter /sw/cluster/pub/apps//g16/l202.exe)
                          Input orientation:                          
 ---------------------------------------------------------------------
 Center     Atomic      Atomic             Coordinates (Angstroms)
 Number     Number       Type             X           Y           Z
 ---------------------------------------------------------------------
      1          6           0       -0.695342    1.204305    0.000000
      2          6           0        0.695340    1.204306    0.000000
      3          6           0        1.390708    0.000001    0.000000
      4          6           0        0.695342   -1.204305    0.000000
      5          6           0       -0.695341   -1.204306    0.000000
      6          6           0       -1.390709   -0.000001    0.000000
      7          1           0       -1.237959    2.144233    0.000000
      8          1           0        1.237956    2.144235    0.000000
      9          1           0        2.476011    0.000001    0.000000
     10          1           0        1.237959   -2.144234    0.000000
     11          1           0       -1.237956   -2.144235    0.000000
     12          1           0       -2.476012   -0.000002    0.000000
 ---------------------------------------------------------------------
                    Distance matrix (angstroms):
                    1          2          3          4          5
     1  C    0.000000
     2  C    1.390682   0.000000
     3  C    2.408725   1.390643   0.000000
     4  C    2.781260   2.408611   1.390643   0.000000
     5  C    2.408611   2.781260   2.408725   1.390683   0.000000
     6  C    1.390643   2.408725   2.781417   2.408725   1.390643
     7  H    1.085310   2.149676   3.392289   3.866570   3.392219
     8  H    2.149676   1.085310   2.149668   3.392219   3.866570
     9  H    3.392319   2.149684   1.085303   2.149683   3.392319
    10  H    3.866570   3.392219   2.149668   1.085310   2.149676
    11  H    3.392220   3.866570   3.392289   2.149676   1.085310
    12  H    2.149684   3.392319   3.866720   3.392319   2.149683
                    6          7          8          9         10
     6  C    0.000000
     7  H    2.149668   0.000000
     8  H    3.392289   2.475914   0.000000
     9  H    3.866720   4.288508   2.475989   0.000000
    10  H    3.392289   4.951880   4.288469   2.475988   0.000000
    11  H    2.149668   4.288469   4.951880   4.288508   2.475914
    12  H    1.085303   2.475989   4.288508   4.952023   4.288508
                   11         12
    11  H    0.000000
    12  H    2.475989   0.000000
 Symmetry turned off by external request.
 Stoichiometry    C6H6(1-,2)
 Framework group  C2H[SGH(C6H6)]
 Deg. of freedom    11
 Full point group                 C2H     NOp   4
 Rotational constants (GHZ):           5.7330547           5.7324559           2.8663776
 Leave Link  202 at Thu Jan 30 14:33:03 2025, MaxMem=   104857600 cpu:               0.0 elap:               0.0
 (Enter /sw/cluster/pub/apps//g16/l301.exe)
 Standard basis: 6-311++G(d,p) (5D, 7F)
 Ernie: Thresh=  0.10000D-02 Tol=  0.10000D-05 Strict=F.
   174 basis functions,   270 primitive gaussians,   180 cartesian basis functions
    22 alpha electrons       21 beta electrons
       nuclear repulsion energy       203.9742416542 Hartrees.
 IExCor= 1009 DFT=T Ex+Corr=PBE1PBE ExCW=0 ScaHFX=  0.250000
 ScaDFX=  0.750000  0.750000  1.000000  1.000000 ScalE2=  1.000000  1.000000
 IRadAn=      5 IRanWt=     -1 IRanGd=            0 ICorTp=0 IEmpDi=  4
 NAtoms=   12 NActive=   12 NUniq=   12 SFac= 1.00D+00 NAtFMM=   60 NAOKFM=F Big=F
 Integral buffers will be    131072 words long.
 Raffenetti 2 integral format.
 Two-electron integral symmetry is turned off.
 Leave Link  301 at Thu Jan 30 14:33:03 2025, MaxMem=   104857600 cpu:               0.0 elap:               0.0
 (Enter /sw/cluster/pub/apps//g16/l302.exe)
 NPDir=0 NMtPBC=     1 NCelOv=     1 NCel=       1 NClECP=     1 NCelD=      1
         NCelK=      1 NCelE2=     1 NClLst=     1 CellRange=     0.0.
 One-electron integrals computed using PRISM.
 NBasis=   174 RedAO= T EigKep=  1.04D-06  NBF=   174
 NBsUse=   174 1.00D-06 EigRej= -1.00D+00 NBFU=   174
 Precomputing XC quadrature grid using
 IXCGrd= 4 IRadAn=           5 IRanWt=          -1 IRanGd=           0 AccXCQ= 0.00D+00.
 Generated NRdTot=       0 NPtTot=           0 NUsed=           0 NTot=          32
 NSgBfM=   180   180   180   180   180 MxSgAt=    12 MxSgA2=    12.
 Leave Link  302 at Thu Jan 30 14:33:03 2025, MaxMem=   104857600 cpu:               0.1 elap:               0.1
 (Enter /sw/cluster/pub/apps//g16/l303.exe)
 DipDrv:  MaxL=1.
 Leave Link  303 at Thu Jan 30 14:33:03 2025, MaxMem=   104857600 cpu:               0.0 elap:               0.0
 (Enter /sw/cluster/pub/apps//g16/l401.exe)
 ExpMin= 3.60D-02 ExpMax= 4.56D+03 ExpMxC= 6.82D+02 IAcc=3 IRadAn=         5 AccDes= 0.00D+00
 Harris functional with IExCor= 1009 and IRadAn=       5 diagonalized for initial guess.
 HarFok:  IExCor= 1009 AccDes= 0.00D+00 IRadAn=         5 IDoV= 1 UseB2=F ITyADJ=14
 ICtDFT=  3500011 ScaDFX=  1.000000  1.000000  1.000000  1.000000
 FoFCou: FMM=F IPFlag=           0 FMFlag=      100000 FMFlg1=           0
         NFxFlg=           0 DoJE=T BraDBF=F KetDBF=T FulRan=T
         wScrn=  0.000000 ICntrl=       500 IOpCl=  0 I1Cent=   200000004 NGrid=           0
         NMat0=    1 NMatS0=      1 NMatT0=    0 NMatD0=    1 NMtDS0=    0 NMtDT0=    0
 Symmetry not used in FoFCou.
 Harris En= -232.288554901997    
 JPrj=0 DoOrth=F DoCkMO=F.
 Initial guess <Sx>= 0.0000 <Sy>= 0.0000 <Sz>= 0.5000 <S**2>= 0.7500 S= 0.5000
 Leave Link  401 at Thu Jan 30 14:33:05 2025, MaxMem=   104857600 cpu:               1.1 elap:               1.1
 (Enter /sw/cluster/pub/apps//g16/l502.exe)
 Two-electron integral symmetry not used.
 UHF open shell SCF:
 Using DIIS extrapolation, IDIIS=  1040.
 NGot=   104857600 LenX=   104790300 LenY=   104757459
 Requested convergence on RMS density matrix=1.00D-08 within 128 cycles.
 Requested convergence on MAX density matrix=1.00D-06.
 Requested convergence on             energy=1.00D-06.
 No special actions if energy rises.
 Fock matrices will be formed incrementally for  20 cycles.

 Cycle   1  Pass 1  IDiag  1:
 FoFJK:  IHMeth= 1 ICntrl=       0 DoSepK=F KAlg= 0 I1Cent=           0 FoldK=F
 IRaf= 990000000 NMat=       1 IRICut=       1 DoRegI=T DoRafI=F ISym2E= 0 IDoP0=0 IntGTp=1.
 FoFCou: FMM=F IPFlag=           0 FMFlag=      100000 FMFlg1=           0
         NFxFlg=           0 DoJE=F BraDBF=F KetDBF=F FulRan=T
         wScrn=  0.000000 ICntrl=         0 IOpCl=  1 I1Cent=           0 NGrid=           0
         NMat0=    1 NMatS0=      1 NMatT0=    0 NMatD0=    1 NMtDS0=    0 NMtDT0=    0
 Symmetry not used in FoFCou.
 E= -231.635374446115    
 DIIS: error= 6.70D-02 at cycle   1 NSaved=   1.
 NSaved= 1 IEnMin= 1 EnMin= -231.635374446115     IErMin= 1 ErrMin= 6.70D-02
 ErrMax= 6.70D-02  0.00D+00 EMaxC= 1.00D-01 BMatC= 1.16D+00 BMatP= 1.16D+00
 IDIUse=3 WtCom= 3.30D-01 WtEn= 6.70D-01
 Coeff-Com:  0.100D+01
 Coeff-En:   0.100D+01
 Coeff:      0.100D+01
 Gap=     0.051 Goal=   None    Shift=    0.000
 Gap=     0.255 Goal=   None    Shift=    0.000
 GapD=    0.051 DampG=0.500 DampE=0.500 DampFc=0.2500 IDamp=-1.
 Damping current iteration by 2.50D-01
 RMSDP=1.81D-01 MaxDP=5.92D+00              OVMax= 9.96D-01

 Cycle   2  Pass 1  IDiag  1:
 RMSU=  4.53D-02    CP:  9.87D-01
 E= -231.766720186580     Delta-E=       -0.131345740466 Rises=F Damp=T
 DIIS: error= 2.90D-02 at cycle   2 NSaved=   2.
 NSaved= 2 IEnMin= 2 EnMin= -231.766720186580     IErMin= 2 ErrMin= 2.90D-02
 ErrMax= 2.90D-02  0.00D+00 EMaxC= 1.00D-01 BMatC= 2.08D-01 BMatP= 1.16D+00
 IDIUse=3 WtCom= 7.10D-01 WtEn= 2.90D-01
 Coeff-Com: -0.574D+00 0.157D+01
 Coeff-En:   0.000D+00 0.100D+01
 Coeff:     -0.407D+00 0.141D+01
 Gap=     0.009 Goal=   None    Shift=    0.000
 Gap=     0.153 Goal=   None    Shift=    0.000
 RMSDP=1.44D-01 MaxDP=5.10D+00 DE=-1.31D-01 OVMax= 2.85D-01

 Cycle   3  Pass 1  IDiag  1:
 RMSU=  6.24D-02    CP:  1.25D+00  3.00D+00
 E= -231.980848889213     Delta-E=       -0.214128702633 Rises=F Damp=F
 DIIS: error= 1.57D-02 at cycle   3 NSaved=   3.
 NSaved= 3 IEnMin= 3 EnMin= -231.980848889213     IErMin= 3 ErrMin= 1.57D-02
 ErrMax= 1.57D-02  0.00D+00 EMaxC= 1.00D-01 BMatC= 4.09D-02 BMatP= 2.08D-01
 IDIUse=3 WtCom= 8.43D-01 WtEn= 1.57D-01
 Coeff-Com:  0.131D+00 0.290D-01 0.840D+00
 Coeff-En:   0.000D+00 0.000D+00 0.100D+01
 Coeff:      0.110D+00 0.245D-01 0.865D+00
 Gap=     0.023 Goal=   None    Shift=    0.000
 Gap=     0.241 Goal=   None    Shift=    0.000
 RMSDP=5.85D-02 MaxDP=2.18D+00 DE=-2.14D-01 OVMax= 8.03D-02

 Cycle   4  Pass 1  IDiag  1:
 RMSU=  1.52D-02    CP:  1.26D+00  2.99D+00  9.93D-02
 E= -231.995283841392     Delta-E=       -0.014434952178 Rises=F Damp=F
 DIIS: error= 2.90D-03 at cycle   4 NSaved=   4.
 NSaved= 4 IEnMin= 4 EnMin= -231.995283841392     IErMin= 4 ErrMin= 2.90D-03
 ErrMax= 2.90D-03  0.00D+00 EMaxC= 1.00D-01 BMatC= 1.07D-03 BMatP= 4.09D-02
 IDIUse=3 WtCom= 9.71D-01 WtEn= 2.90D-02
 Coeff-Com:  0.115D-01-0.437D-02 0.139D+00 0.854D+00
 Coeff-En:   0.000D+00 0.000D+00 0.000D+00 0.100D+01
 Coeff:      0.112D-01-0.425D-02 0.135D+00 0.858D+00
 Gap=     0.026 Goal=   None    Shift=    0.000
 Gap=     0.240 Goal=   None    Shift=    0.000
 RMSDP=2.00D-02 MaxDP=6.13D-01 DE=-1.44D-02 OVMax= 1.55D-02

 Cycle   5  Pass 1  IDiag  1:
 RMSU=  1.17D-02    CP:  1.25D+00  2.70D+00 -5.16D-02  9.13D-01
 E= -231.995559112055     Delta-E=       -0.000275270663 Rises=F Damp=F
 DIIS: error= 1.68D-03 at cycle   5 NSaved=   5.
 NSaved= 5 IEnMin= 5 EnMin= -231.995559112055     IErMin= 5 ErrMin= 1.68D-03
 ErrMax= 1.68D-03  0.00D+00 EMaxC= 1.00D-01 BMatC= 4.36D-04 BMatP= 1.07D-03
 IDIUse=3 WtCom= 9.83D-01 WtEn= 1.68D-02
 Coeff-Com: -0.377D-02-0.215D-03 0.188D-01 0.413D+00 0.572D+00
 Coeff-En:   0.000D+00 0.000D+00 0.000D+00 0.000D+00 0.100D+01
 Coeff:     -0.370D-02-0.211D-03 0.184D-01 0.406D+00 0.580D+00
 Gap=     0.026 Goal=   None    Shift=    0.000
 Gap=     0.242 Goal=   None    Shift=    0.000
 RMSDP=1.05D-02 MaxDP=3.42D-01 DE=-2.75D-04 OVMax= 1.19D-02

 Cycle   6  Pass 1  IDiag  1:
 RMSU=  1.26D-03    CP:  1.23D+00  2.57D+00 -1.36D-01  8.59D-01  1.56D+00
 E= -231.995684679181     Delta-E=       -0.000125567126 Rises=F Damp=F
 DIIS: error= 7.63D-04 at cycle   6 NSaved=   6.
 NSaved= 6 IEnMin= 6 EnMin= -231.995684679181     IErMin= 6 ErrMin= 7.63D-04
 ErrMax= 7.63D-04  0.00D+00 EMaxC= 1.00D-01 BMatC= 5.14D-05 BMatP= 4.36D-04
 IDIUse=3 WtCom= 9.92D-01 WtEn= 7.63D-03
 Coeff-Com: -0.795D-02 0.137D-01-0.149D-01-0.959D-01 0.173D+00 0.932D+00
 Coeff-En:   0.000D+00 0.000D+00 0.000D+00 0.000D+00 0.000D+00 0.100D+01
 Coeff:     -0.789D-02 0.136D-01-0.148D-01-0.952D-01 0.171D+00 0.933D+00
 Gap=     0.026 Goal=   None    Shift=    0.000
 Gap=     0.241 Goal=   None    Shift=    0.000
 RMSDP=1.28D-02 MaxDP=3.88D-01 DE=-1.26D-04 OVMax= 1.33D-02

 Cycle   7  Pass 1  IDiag  1:
 RMSU=  8.82D-04    CP:  1.21D+00  2.41D+00 -2.41D-01  7.63D-01  2.25D+00
                    CP:  2.66D+00
 E= -231.995722193554     Delta-E=       -0.000037514372 Rises=F Damp=F
 DIIS: error= 1.33D-04 at cycle   7 NSaved=   7.
 NSaved= 7 IEnMin= 7 EnMin= -231.995722193554     IErMin= 7 ErrMin= 1.33D-04
 ErrMax= 1.33D-04  0.00D+00 EMaxC= 1.00D-01 BMatC= 2.98D-06 BMatP= 5.14D-05
 IDIUse=3 WtCom= 9.99D-01 WtEn= 1.33D-03
 Coeff-Com:  0.230D-02-0.310D-02-0.181D-02-0.222D-01-0.963D-01-0.190D+00
 Coeff-Com:  0.131D+01
 Coeff-En:   0.000D+00 0.000D+00 0.000D+00 0.000D+00 0.000D+00 0.000D+00
 Coeff-En:   0.100D+01
 Coeff:      0.229D-02-0.310D-02-0.181D-02-0.222D-01-0.962D-01-0.190D+00
 Coeff:      0.131D+01
 Gap=     0.027 Goal=   None    Shift=    0.000
 Gap=     0.242 Goal=   None    Shift=    0.000
 RMSDP=1.20D-02 MaxDP=3.64D-01 DE=-3.75D-05 OVMax= 1.42D-02

 Cycle   8  Pass 1  IDiag  1:
 RMSU=  2.51D-03    CP:  1.19D+00  2.27D+00 -3.37D-01  6.68D-01  2.89D+00
                    CP:  3.00D+00  2.63D+00
 E= -231.995736410538     Delta-E=       -0.000014216985 Rises=F Damp=F
 DIIS: error= 3.96D-05 at cycle   8 NSaved=   8.
 NSaved= 8 IEnMin= 8 EnMin= -231.995736410538     IErMin= 8 ErrMin= 3.96D-05
 ErrMax= 3.96D-05  0.00D+00 EMaxC= 1.00D-01 BMatC= 4.38D-07 BMatP= 2.98D-06
 IDIUse=1 WtCom= 1.00D+00 WtEn= 0.00D+00
 Coeff-Com: -0.614D-04 0.259D-04 0.136D-02 0.126D-01 0.211D-01-0.333D-01
 Coeff-Com: -0.355D+00 0.135D+01
 Coeff:     -0.614D-04 0.259D-04 0.136D-02 0.126D-01 0.211D-01-0.333D-01
 Coeff:     -0.355D+00 0.135D+01
 Gap=     0.027 Goal=   None    Shift=    0.000
 Gap=     0.241 Goal=   None    Shift=    0.000
 RMSDP=7.57D-03 MaxDP=2.43D-01 DE=-1.42D-05 OVMax= 9.51D-03

 Cycle   9  Pass 1  IDiag  1:
 RMSU=  3.45D-03    CP:  1.18D+00  2.19D+00 -3.96D-01  6.03D-01  3.00D+00
                    CP:  3.00D+00  3.00D+00  1.93D+00
 E= -231.995741521887     Delta-E=       -0.000005111348 Rises=F Damp=F
 DIIS: error= 2.57D-05 at cycle   9 NSaved=   9.
 NSaved= 9 IEnMin= 9 EnMin= -231.995741521887     IErMin= 9 ErrMin= 2.57D-05
 ErrMax= 2.57D-05  0.00D+00 EMaxC= 1.00D-01 BMatC= 1.53D-07 BMatP= 4.38D-07
 IDIUse=1 WtCom= 1.00D+00 WtEn= 0.00D+00
 Coeff-Com: -0.432D-03 0.592D-03-0.324D-04-0.169D-02 0.130D-01 0.424D-01
 Coeff-Com: -0.805D-01-0.624D+00 0.165D+01
 Coeff:     -0.432D-03 0.592D-03-0.324D-04-0.169D-02 0.130D-01 0.424D-01
 Coeff:     -0.805D-01-0.624D+00 0.165D+01
 Gap=     0.027 Goal=   None    Shift=    0.000
 Gap=     0.241 Goal=   None    Shift=    0.000
 RMSDP=6.47D-03 MaxDP=2.25D-01 DE=-5.11D-06 OVMax= 8.26D-03

 Cycle  10  Pass 1  IDiag  1:
 RMSU=  2.31D-04    CP:  1.18D+00  2.12D+00 -4.44D-01  5.44D-01  3.00D+00
                    CP:  3.00D+00  3.00D+00  2.82D+00  2.18D+00
 E= -231.995744061639     Delta-E=       -0.000002539752 Rises=F Damp=F
 DIIS: error= 1.29D-05 at cycle  10 NSaved=  10.
 NSaved=10 IEnMin=10 EnMin= -231.995744061639     IErMin=10 ErrMin= 1.29D-05
 ErrMax= 1.29D-05  0.00D+00 EMaxC= 1.00D-01 BMatC= 3.76D-08 BMatP= 1.53D-07
 IDIUse=1 WtCom= 1.00D+00 WtEn= 0.00D+00
 Coeff-Com:  0.120D-03-0.133D-03-0.490D-03-0.437D-02-0.103D-01-0.628D-03
 Coeff-Com:  0.173D+00-0.419D+00-0.421D+00 0.168D+01
 Coeff:      0.120D-03-0.133D-03-0.490D-03-0.437D-02-0.103D-01-0.628D-03
 Coeff:      0.173D+00-0.419D+00-0.421D+00 0.168D+01
 Gap=     0.027 Goal=   None    Shift=    0.000
 Gap=     0.241 Goal=   None    Shift=    0.000
 RMSDP=5.29D-03 MaxDP=1.95D-01 DE=-2.54D-06 OVMax= 6.79D-03

 Cycle  11  Pass 1  IDiag  1:
 RMSU=  1.61D-03    CP:  1.18D+00  2.06D+00 -4.83D-01  4.93D-01  3.00D+00
                    CP:  3.00D+00  3.00D+00  3.00D+00  3.00D+00  2.71D+00
 E= -231.995744865000     Delta-E=       -0.000000803361 Rises=F Damp=F
 DIIS: error= 3.33D-06 at cycle  11 NSaved=  11.
 NSaved=11 IEnMin=11 EnMin= -231.995744865000     IErMin=11 ErrMin= 3.33D-06
 ErrMax= 3.33D-06  0.00D+00 EMaxC= 1.00D-01 BMatC= 3.28D-09 BMatP= 3.76D-08
 IDIUse=1 WtCom= 1.00D+00 WtEn= 0.00D+00
 Coeff-Com:  0.297D-04-0.357D-04-0.143D-03-0.445D-03-0.194D-02-0.329D-02
 Coeff-Com:  0.279D-01-0.105D-01-0.203D+00 0.241D+00 0.950D+00
 Coeff:      0.297D-04-0.357D-04-0.143D-03-0.445D-03-0.194D-02-0.329D-02
 Coeff:      0.279D-01-0.105D-01-0.203D+00 0.241D+00 0.950D+00
 Gap=     0.027 Goal=   None    Shift=    0.000
 Gap=     0.241 Goal=   None    Shift=    0.000
 RMSDP=8.10D-04 MaxDP=3.15D-02 DE=-8.03D-07 OVMax= 1.02D-03

 Cycle  12  Pass 1  IDiag  1:
 RMSU=  3.84D-04    CP:  1.18D+00  2.06D+00 -4.88D-01  4.85D-01  3.00D+00
                    CP:  3.00D+00  3.00D+00  3.00D+00  3.00D+00  3.00D+00
                    CP:  1.27D+00
 E= -231.995744885179     Delta-E=       -0.000000020178 Rises=F Damp=F
 DIIS: error= 5.90D-06 at cycle  12 NSaved=  12.
 NSaved=12 IEnMin=12 EnMin= -231.995744885179     IErMin=11 ErrMin= 3.33D-06
 ErrMax= 5.90D-06  0.00D+00 EMaxC= 1.00D-01 BMatC= 4.53D-09 BMatP= 3.28D-09
 IDIUse=1 WtCom= 1.00D+00 WtEn= 0.00D+00
 Coeff-Com: -0.108D-04 0.101D-04 0.162D-04 0.841D-03 0.131D-02-0.243D-02
 Coeff-Com: -0.252D-01 0.106D+00-0.447D-01-0.266D+00 0.744D+00 0.487D+00
 Coeff:     -0.108D-04 0.101D-04 0.162D-04 0.841D-03 0.131D-02-0.243D-02
 Coeff:     -0.252D-01 0.106D+00-0.447D-01-0.266D+00 0.744D+00 0.487D+00
 Gap=     0.027 Goal=   None    Shift=    0.000
 Gap=     0.241 Goal=   None    Shift=    0.000
 RMSDP=2.43D-04 MaxDP=9.78D-03 DE=-2.02D-08 OVMax= 3.05D-04

 Cycle  13  Pass 1  IDiag  1:
 RMSU=  2.84D-05    CP:  1.18D+00  2.05D+00 -4.90D-01  4.82D-01  3.00D+00
                    CP:  3.00D+00  3.00D+00  3.00D+00  3.00D+00  3.00D+00
                    CP:  1.35D+00  1.30D+00
 E= -231.995744887645     Delta-E=       -0.000000002466 Rises=F Damp=F
 DIIS: error= 4.03D-07 at cycle  13 NSaved=  13.
 NSaved=13 IEnMin=13 EnMin= -231.995744887645     IErMin=13 ErrMin= 4.03D-07
 ErrMax= 4.03D-07  0.00D+00 EMaxC= 1.00D-01 BMatC= 4.77D-11 BMatP= 3.28D-09
 IDIUse=1 WtCom= 1.00D+00 WtEn= 0.00D+00
 Coeff-Com:  0.713D-06-0.209D-05 0.333D-04 0.524D-04 0.122D-03 0.197D-03
 Coeff-Com: -0.250D-02 0.174D-02 0.258D-01-0.237D-01-0.104D+00 0.101D-01
 Coeff-Com:  0.109D+01
 Coeff:      0.713D-06-0.209D-05 0.333D-04 0.524D-04 0.122D-03 0.197D-03
 Coeff:     -0.250D-02 0.174D-02 0.258D-01-0.237D-01-0.104D+00 0.101D-01
 Coeff:      0.109D+01
 Gap=     0.027 Goal=   None    Shift=    0.000
 Gap=     0.241 Goal=   None    Shift=    0.000
 RMSDP=4.00D-05 MaxDP=1.47D-03 DE=-2.47D-09 OVMax= 5.63D-05

 Cycle  14  Pass 1  IDiag  1:
 RMSU=  2.35D-06    CP:  1.18D+00  2.05D+00 -4.90D-01  4.83D-01  3.00D+00
                    CP:  3.00D+00  3.00D+00  3.00D+00  3.00D+00  3.00D+00
                    CP:  1.34D+00  1.25D+00  9.34D-01
 E= -231.995744887677     Delta-E=       -0.000000000032 Rises=F Damp=F
 DIIS: error= 1.17D-07 at cycle  14 NSaved=  14.
 NSaved=14 IEnMin=14 EnMin= -231.995744887677     IErMin=14 ErrMin= 1.17D-07
 ErrMax= 1.17D-07  0.00D+00 EMaxC= 1.00D-01 BMatC= 3.22D-12 BMatP= 4.77D-11
 IDIUse=1 WtCom= 1.00D+00 WtEn= 0.00D+00
 Coeff-Com:  0.128D-05-0.167D-05 0.564D-05-0.265D-04-0.234D-04 0.864D-04
 Coeff-Com:  0.734D-03-0.456D-02 0.362D-02 0.888D-02-0.489D-01-0.226D-01
 Coeff-Com:  0.127D+00 0.936D+00
 Coeff:      0.128D-05-0.167D-05 0.564D-05-0.265D-04-0.234D-04 0.864D-04
 Coeff:      0.734D-03-0.456D-02 0.362D-02 0.888D-02-0.489D-01-0.226D-01
 Coeff:      0.127D+00 0.936D+00
 Gap=     0.027 Goal=   None    Shift=    0.000
 Gap=     0.241 Goal=   None    Shift=    0.000
 RMSDP=2.48D-05 MaxDP=9.75D-04 DE=-3.22D-11 OVMax= 3.01D-05

 Cycle  15  Pass 1  IDiag  1:
 RMSU=  9.86D-07    CP:  1.18D+00  2.05D+00 -4.90D-01  4.82D-01  3.00D+00
                    CP:  3.00D+00  3.00D+00  3.00D+00  3.00D+00  3.00D+00
                    CP:  1.35D+00  1.28D+00  1.01D+00  1.07D+00
 E= -231.995744887687     Delta-E=       -0.000000000010 Rises=F Damp=F
 DIIS: error= 2.49D-08 at cycle  15 NSaved=  15.
 NSaved=15 IEnMin=15 EnMin= -231.995744887687     IErMin=15 ErrMin= 2.49D-08
 ErrMax= 2.49D-08  0.00D+00 EMaxC= 1.00D-01 BMatC= 1.17D-13 BMatP= 3.22D-12
 IDIUse=1 WtCom= 1.00D+00 WtEn= 0.00D+00
 Coeff-Com: -0.268D-06 0.397D-06-0.281D-05 0.178D-05 0.451D-05 0.220D-05
 Coeff-Com: -0.566D-04 0.506D-03-0.123D-02-0.206D-03 0.107D-01 0.173D-02
 Coeff-Com: -0.737D-01-0.117D+00 0.118D+01
 Coeff:     -0.268D-06 0.397D-06-0.281D-05 0.178D-05 0.451D-05 0.220D-05
 Coeff:     -0.566D-04 0.506D-03-0.123D-02-0.206D-03 0.107D-01 0.173D-02
 Coeff:     -0.737D-01-0.117D+00 0.118D+01
 Gap=     0.027 Goal=   None    Shift=    0.000
 Gap=     0.241 Goal=   None    Shift=    0.000
 RMSDP=1.40D-06 MaxDP=4.62D-05 DE=-9.89D-12 OVMax= 2.06D-06

 Cycle  16  Pass 1  IDiag  1:
 RMSU=  4.60D-08    CP:  1.18D+00  2.05D+00 -4.90D-01  4.82D-01  3.00D+00
                    CP:  3.00D+00  3.00D+00  3.00D+00  3.00D+00  3.00D+00
                    CP:  1.35D+00  1.28D+00  1.01D+00  1.09D+00  9.63D-01
 E= -231.995744887687     Delta-E=        0.000000000000 Rises=F Damp=F
 DIIS: error= 4.63D-09 at cycle  16 NSaved=  16.
 NSaved=16 IEnMin=15 EnMin= -231.995744887687     IErMin=16 ErrMin= 4.63D-09
 ErrMax= 4.63D-09  0.00D+00 EMaxC= 1.00D-01 BMatC= 9.25D-15 BMatP= 1.17D-13
 IDIUse=1 WtCom= 1.00D+00 WtEn= 0.00D+00
 Coeff-Com: -0.123D-06 0.173D-06-0.850D-06 0.684D-06 0.998D-06-0.590D-06
 Coeff-Com: -0.229D-04 0.208D-03-0.373D-03-0.239D-03 0.366D-02 0.967D-03
 Coeff-Com: -0.209D-01-0.479D-01 0.283D+00 0.781D+00
 Coeff:     -0.123D-06 0.173D-06-0.850D-06 0.684D-06 0.998D-06-0.590D-06
 Coeff:     -0.229D-04 0.208D-03-0.373D-03-0.239D-03 0.366D-02 0.967D-03
 Coeff:     -0.209D-01-0.479D-01 0.283D+00 0.781D+00
 Gap=     0.027 Goal=   None    Shift=    0.000
 Gap=     0.241 Goal=   None    Shift=    0.000
 RMSDP=9.87D-08 MaxDP=3.71D-06 DE= 3.98D-13 OVMax= 1.17D-07

 Cycle  17  Pass 1  IDiag  1:
 RMSU=  6.58D-09    CP:  1.18D+00  2.05D+00 -4.90D-01  4.82D-01  3.00D+00
                    CP:  3.00D+00  3.00D+00  3.00D+00  3.00D+00  3.00D+00
                    CP:  1.35D+00  1.28D+00  1.01D+00  1.09D+00  9.60D-01
                    CP:  1.02D+00
 E= -231.995744887687     Delta-E=       -0.000000000000 Rises=F Damp=F
 DIIS: error= 3.64D-09 at cycle  17 NSaved=  17.
 NSaved=17 IEnMin=15 EnMin= -231.995744887687     IErMin=17 ErrMin= 3.64D-09
 ErrMax= 3.64D-09  0.00D+00 EMaxC= 1.00D-01 BMatC= 4.88D-15 BMatP= 9.25D-15
 IDIUse=1 WtCom= 1.00D+00 WtEn= 0.00D+00
 Coeff-Com: -0.187D-07 0.222D-07 0.130D-06-0.114D-06-0.678D-06-0.737D-06
 Coeff-Com:  0.304D-05-0.218D-05 0.567D-04-0.700D-04-0.333D-03 0.120D-03
 Coeff-Com:  0.439D-02-0.337D-04-0.956D-01 0.439D+00 0.652D+00
 Coeff:     -0.187D-07 0.222D-07 0.130D-06-0.114D-06-0.678D-06-0.737D-06
 Coeff:      0.304D-05-0.218D-05 0.567D-04-0.700D-04-0.333D-03 0.120D-03
 Coeff:      0.439D-02-0.337D-04-0.956D-01 0.439D+00 0.652D+00
 Gap=     0.027 Goal=   None    Shift=    0.000
 Gap=     0.241 Goal=   None    Shift=    0.000
 RMSDP=2.02D-08 MaxDP=6.78D-07 DE=-5.68D-14 OVMax= 4.14D-08

 Cycle  18  Pass 1  IDiag  1:
 RMSU=  3.09D-09    CP:  1.18D+00  2.05D+00 -4.90D-01  4.82D-01  3.00D+00
                    CP:  3.00D+00  3.00D+00  3.00D+00  3.00D+00  3.00D+00
                    CP:  1.35D+00  1.28D+00  1.01D+00  1.09D+00  9.56D-01
                    CP:  1.04D+00  5.52D-01
 E= -231.995744887688     Delta-E=       -0.000000000001 Rises=F Damp=F
 DIIS: error= 6.89D-10 at cycle  18 NSaved=  18.
 NSaved=18 IEnMin=18 EnMin= -231.995744887688     IErMin=18 ErrMin= 6.89D-10
 ErrMax= 6.89D-10  0.00D+00 EMaxC= 1.00D-01 BMatC= 1.04D-16 BMatP= 4.88D-15
 IDIUse=1 WtCom= 1.00D+00 WtEn= 0.00D+00
 Large coefficients: NSaved= 18 BigCof=    0.00 CofMax=   10.00 Det=-1.14D-15
 Inversion failed.  Reducing to 17 matrices.
 Large coefficients: NSaved= 17 BigCof=    0.00 CofMax=   10.00 Det=-1.14D-15
 Inversion failed.  Reducing to 16 matrices.
 Large coefficients: NSaved= 16 BigCof=    0.00 CofMax=   10.00 Det=-1.15D-15
 Inversion failed.  Reducing to 15 matrices.
 Coeff-Com: -0.125D-06-0.453D-06-0.515D-06 0.572D-05-0.725D-05-0.969D-05
 Coeff-Com:  0.246D-04-0.387D-04-0.135D-04 0.521D-03-0.154D-03-0.138D-01
 Coeff-Com:  0.398D-01 0.111D+00 0.863D+00
 Coeff:     -0.125D-06-0.453D-06-0.515D-06 0.572D-05-0.725D-05-0.969D-05
 Coeff:      0.246D-04-0.387D-04-0.135D-04 0.521D-03-0.154D-03-0.138D-01
 Coeff:      0.398D-01 0.111D+00 0.863D+00
 Gap=     0.027 Goal=   None    Shift=    0.000
 Gap=     0.241 Goal=   None    Shift=    0.000
 RMSDP=1.71D-08 MaxDP=5.79D-07 DE=-1.25D-12 OVMax= 3.14D-08

 Cycle  19  Pass 1  IDiag  1:
 RMSU=  2.26D-09    CP:  1.18D+00  2.05D+00 -4.90D-01  4.82D-01  3.00D+00
                    CP:  3.00D+00  3.00D+00  3.00D+00  3.00D+00  3.00D+00
                    CP:  1.35D+00  1.28D+00  1.01D+00  1.08D+00  9.53D-01
                    CP:  1.04D+00  9.08D-01  6.61D-01
 E= -231.995744887688     Delta-E=        0.000000000000 Rises=F Damp=F
 DIIS: error= 1.05D-09 at cycle  19 NSaved=  16.
 NSaved=16 IEnMin=15 EnMin= -231.995744887688     IErMin=15 ErrMin= 6.89D-10
 ErrMax= 1.05D-09  0.00D+00 EMaxC= 1.00D-01 BMatC= 1.50D-16 BMatP= 1.04D-16
 IDIUse=1 WtCom= 1.00D+00 WtEn= 0.00D+00
 Large coefficients: NSaved= 16 BigCof=    0.00 CofMax=   10.00 Det=-3.37D-16
 Inversion failed.  Reducing to 15 matrices.
 Coeff-Com: -0.120D-07-0.571D-07 0.781D-06-0.256D-05-0.276D-05 0.122D-04
 Coeff-Com: -0.294D-04-0.254D-04 0.107D-03 0.462D-03 0.106D-02-0.435D-01
 Coeff-Com: -0.242D-01 0.616D+00 0.450D+00
 Coeff:     -0.120D-07-0.571D-07 0.781D-06-0.256D-05-0.276D-05 0.122D-04
 Coeff:     -0.294D-04-0.254D-04 0.107D-03 0.462D-03 0.106D-02-0.435D-01
 Coeff:     -0.242D-01 0.616D+00 0.450D+00
 Gap=     0.027 Goal=   None    Shift=    0.000
 Gap=     0.241 Goal=   None    Shift=    0.000
 RMSDP=2.96D-09 MaxDP=1.39D-07 DE= 5.68D-14 OVMax= 7.92D-09

 SCF Done:  E(UPBE1PBE) =  -231.995744888     A.U. after   19 cycles
            NFock= 19  Conv=0.30D-08     -V/T= 2.0039
 <Sx>= 0.0000 <Sy>= 0.0000 <Sz>= 0.5000 <S**2>= 0.7501 S= 0.5000
 <L.S>=  0.00000000000    
 KE= 2.310886961558D+02 PE=-9.512790538283D+02 EE= 2.842203711307D+02
 Annihilation of the first spin contaminant:
 S**2 before annihilation     0.7501,   after     0.7500
 Leave Link  502 at Thu Jan 30 14:34:01 2025, MaxMem=   104857600 cpu:              55.2 elap:              56.5
 (Enter /sw/cluster/pub/apps//g16/l601.exe)
 Copying SCF densities to generalized density rwf, IOpCl= 1 IROHF=0.

 **********************************************************************

            Population analysis using the SCF density.

 **********************************************************************

 Alpha  occ. eigenvalues --  -10.10755 -10.10727 -10.10727 -10.10665 -10.10665
 Alpha  occ. eigenvalues --  -10.10635  -0.76513  -0.65244  -0.65242  -0.50385
 Alpha  occ. eigenvalues --   -0.50385  -0.42337  -0.35561  -0.34468  -0.31671
 Alpha  occ. eigenvalues --   -0.31668  -0.26645  -0.23672  -0.23672  -0.14867
 Alpha  occ. eigenvalues --   -0.14866   0.05267
 Alpha virt. eigenvalues --    0.07999   0.07999   0.10187   0.10187   0.10877
 Alpha virt. eigenvalues --    0.10878   0.12621   0.16765   0.18788   0.19324
 Alpha virt. eigenvalues --    0.19325   0.19887   0.21042   0.21560   0.21561
 Alpha virt. eigenvalues --    0.21585   0.21585   0.23787   0.23831   0.23831
 Alpha virt. eigenvalues --    0.24448   0.24448   0.24666   0.26091   0.26091
 Alpha virt. eigenvalues --    0.28395   0.28396   0.30978   0.32723   0.32723
 Alpha virt. eigenvalues --    0.33812   0.34227   0.37676   0.38804   0.38805
 Alpha virt. eigenvalues --    0.40832   0.40833   0.42220   0.46698   0.46699
 Alpha virt. eigenvalues --    0.47751   0.47751   0.57236   0.58955   0.65685
 Alpha virt. eigenvalues --    0.66752   0.67315   0.67315   0.68455   0.69213
 Alpha virt. eigenvalues --    0.69213   0.70109   0.70110   0.73269   0.74824
 Alpha virt. eigenvalues --    0.74824   0.80643   0.85588   0.85591   0.86613
 Alpha virt. eigenvalues --    0.86614   0.90778   0.94027   0.97073   0.97074
 Alpha virt. eigenvalues --    1.00661   1.00662   1.00881   1.01428   1.02406
 Alpha virt. eigenvalues --    1.02406   1.06145   1.13653   1.14888   1.14889
 Alpha virt. eigenvalues --    1.20603   1.20605   1.26784   1.26785   1.43023
 Alpha virt. eigenvalues --    1.45413   1.58811   1.64837   1.64842   1.65759
 Alpha virt. eigenvalues --    1.69880   1.70221   1.70223   1.77518   1.77520
 Alpha virt. eigenvalues --    1.79579   1.79582   1.84569   1.90464   1.90466
 Alpha virt. eigenvalues --    1.95672   1.95674   1.98264   2.06171   2.06172
 Alpha virt. eigenvalues --    2.08332   2.08335   2.09565   2.13000   2.16322
 Alpha virt. eigenvalues --    2.16324   2.21239   2.21243   2.45865   2.47958
 Alpha virt. eigenvalues --    2.53593   2.56211   2.56212   2.60407   2.60410
 Alpha virt. eigenvalues --    2.76601   2.76602   2.80919   2.81440   2.82495
 Alpha virt. eigenvalues --    2.85883   2.85884   2.88746   2.88746   2.92519
 Alpha virt. eigenvalues --    2.94695   2.94696   3.04388   3.04390   3.05624
 Alpha virt. eigenvalues --    3.10332   3.10337   3.23361   3.27543   3.50688
 Alpha virt. eigenvalues --    3.50693   3.64284   3.64289   3.66078   3.84000
 Alpha virt. eigenvalues --    4.14490   4.14493   4.23539   4.30349   4.30353
 Alpha virt. eigenvalues --    4.99909  23.80976  24.20456  24.20464  24.33093
 Alpha virt. eigenvalues --   24.33103  24.44284
  Beta  occ. eigenvalues --  -10.10740 -10.10713 -10.10713 -10.10651 -10.10650
  Beta  occ. eigenvalues --  -10.10620  -0.76472  -0.65196  -0.65195  -0.50323
  Beta  occ. eigenvalues --   -0.50323  -0.42221  -0.35471  -0.34423  -0.31595
  Beta  occ. eigenvalues --   -0.31593  -0.26611  -0.23594  -0.23593  -0.14839
  Beta  occ. eigenvalues --   -0.14838
  Beta virt. eigenvalues --    0.09308   0.10588   0.10588   0.10933   0.10933
  Beta virt. eigenvalues --    0.12671   0.12671   0.15389   0.17087   0.19107
  Beta virt. eigenvalues --    0.19483   0.19483   0.20258   0.22384   0.22501
  Beta virt. eigenvalues --    0.22501   0.22871   0.22871   0.24160   0.24160
  Beta virt. eigenvalues --    0.24348   0.25837   0.25837   0.26112   0.26257
  Beta virt. eigenvalues --    0.26257   0.29726   0.29726   0.31408   0.32949
  Beta virt. eigenvalues --    0.32950   0.34593   0.35810   0.38121   0.39584
  Beta virt. eigenvalues --    0.39585   0.41349   0.41351   0.43391   0.47509
  Beta virt. eigenvalues --    0.47510   0.48188   0.48188   0.57481   0.59176
  Beta virt. eigenvalues --    0.65828   0.67147   0.67420   0.67420   0.68678
  Beta virt. eigenvalues --    0.69337   0.69337   0.70243   0.70243   0.73404
  Beta virt. eigenvalues --    0.75014   0.75014   0.80902   0.85907   0.85910
  Beta virt. eigenvalues --    0.86986   0.86986   0.91035   0.94410   0.97304
  Beta virt. eigenvalues --    0.97304   1.01014   1.01014   1.01133   1.01722
  Beta virt. eigenvalues --    1.02637   1.02638   1.06178   1.13670   1.15047
  Beta virt. eigenvalues --    1.15048   1.20641   1.20643   1.26812   1.26814
  Beta virt. eigenvalues --    1.43143   1.45651   1.58899   1.64966   1.64971
  Beta virt. eigenvalues --    1.65855   1.69965   1.70283   1.70285   1.77586
  Beta virt. eigenvalues --    1.77587   1.79647   1.79650   1.84679   1.90564
  Beta virt. eigenvalues --    1.90566   1.95801   1.95803   1.98362   2.06199
  Beta virt. eigenvalues --    2.06201   2.08421   2.08425   2.09718   2.13158
  Beta virt. eigenvalues --    2.16414   2.16416   2.21315   2.21319   2.45934
  Beta virt. eigenvalues --    2.47983   2.53700   2.56296   2.56298   2.60535
  Beta virt. eigenvalues --    2.60537   2.76669   2.76671   2.80955   2.81522
  Beta virt. eigenvalues --    2.82626   2.86025   2.86026   2.88899   2.88899
  Beta virt. eigenvalues --    2.92701   2.94731   2.94732   3.04420   3.04421
  Beta virt. eigenvalues --    3.05691   3.10426   3.10431   3.23394   3.27581
  Beta virt. eigenvalues --    3.50727   3.50732   3.64343   3.64347   3.66139
  Beta virt. eigenvalues --    3.84069   4.14560   4.14563   4.23608   4.30390
  Beta virt. eigenvalues --    4.30395   4.99929  23.80996  24.20474  24.20482
  Beta virt. eigenvalues --   24.33110  24.33120  24.44302
          Condensed to atoms (all electrons):
               1          2          3          4          5          6
     1  C    8.092788   1.543623   0.919796  -0.212520   0.925802   1.536946
     2  C    1.543623   8.092834   1.536946   0.925828  -0.212518   0.919824
     3  C    0.919796   1.536946   8.078678   1.536944   0.919798  -0.222633
     4  C   -0.212520   0.925828   1.536944   8.092826   1.543622   0.919822
     5  C    0.925802  -0.212518   0.919798   1.543622   8.092789   1.536946
     6  C    1.536946   0.919824  -0.222633   0.919822   1.536946   8.078723
     7  H   -2.220442  -1.647646  -0.638059  -0.337648  -0.644253  -1.640590
     8  H   -1.647625  -2.220462  -1.640568  -0.644265  -0.337637  -0.638073
     9  H   -0.644796  -1.649771  -2.215993  -1.649768  -0.644796  -0.332601
    10  H   -0.337637  -0.644267  -1.640570  -2.220460  -1.647626  -0.638073
    11  H   -0.644252  -0.337650  -0.638059  -1.647644  -2.220442  -1.640590
    12  H   -1.649749  -0.644810  -0.332588  -0.644808  -1.649749  -2.216014
               7          8          9         10         11         12
     1  C   -2.220442  -1.647625  -0.644796  -0.337637  -0.644252  -1.649749
     2  C   -1.647646  -2.220462  -1.649771  -0.644267  -0.337650  -0.644810
     3  C   -0.638059  -1.640568  -2.215993  -1.640570  -0.638059  -0.332588
     4  C   -0.337648  -0.644265  -1.649768  -2.220460  -1.647644  -0.644808
     5  C   -0.644253  -0.337637  -0.644796  -1.647626  -2.220442  -1.649749
     6  C   -1.640590  -0.638073  -0.332601  -0.638073  -1.640590  -2.216014
     7  H    3.172261   1.741354   0.742931   0.490573   0.742092   1.743291
     8  H    1.741354   3.172255   1.743291   0.742091   0.490573   0.742929
     9  H    0.742931   1.743291   3.178339   1.743292   0.742931   0.491660
    10  H    0.490573   0.742091   1.743292   3.172257   1.741354   0.742930
    11  H    0.742092   0.490573   0.742931   1.741354   3.172260   1.743291
    12  H    1.743291   0.742929   0.491660   0.742930   1.743291   3.178334
          Atomic-Atomic Spin Densities.
               1          2          3          4          5          6
     1  C    2.508719   1.563125   0.553421   0.162220   0.559491   1.556575
     2  C    1.563125   2.508765   1.556575   0.559517   0.162222   0.553449
     3  C    0.553421   1.556575   2.494254   1.556573   0.553422   0.152201
     4  C    0.162220   0.559517   1.556573   2.508758   1.563123   0.553447
     5  C    0.559491   0.162222   0.553422   1.563123   2.508719   1.556575
     6  C    1.556575   0.553449   0.152201   0.553447   1.556575   2.494298
     7  H   -2.551316  -1.647963  -0.625487  -0.350379  -0.631684  -1.640894
     8  H   -1.647941  -2.551337  -1.640872  -0.631697  -0.350368  -0.625501
     9  H   -0.632222  -1.650101  -2.546855  -1.650098  -0.632223  -0.345332
    10  H   -0.350367  -0.631699  -1.640873  -2.551334  -1.647942  -0.625501
    11  H   -0.631684  -0.350381  -0.625487  -1.647960  -2.551316  -1.640894
    12  H   -1.650079  -0.632236  -0.345319  -0.632234  -1.650078  -2.546875
               7          8          9         10         11         12
     1  C   -2.551316  -1.647941  -0.632222  -0.350367  -0.631684  -1.650079
     2  C   -1.647963  -2.551337  -1.650101  -0.631699  -0.350381  -0.632236
     3  C   -0.625487  -1.640872  -2.546855  -1.640873  -0.625487  -0.345319
     4  C   -0.350379  -0.631697  -1.650098  -2.551334  -1.647960  -0.632234
     5  C   -0.631684  -0.350368  -0.632223  -1.647942  -2.551316  -1.650078
     6  C   -1.640894  -0.625501  -0.345332  -0.625501  -1.640894  -2.546875
     7  H    2.716153   1.739851   0.743466   0.489743   0.742626   1.741788
     8  H    1.739851   2.716148   1.741788   0.742625   0.489743   0.743465
     9  H    0.743466   1.741788   2.722254   1.741789   0.743466   0.490830
    10  H    0.489743   0.742625   1.741789   2.716149   1.739851   0.743465
    11  H    0.742626   0.489743   0.743466   1.739851   2.716153   1.741788
    12  H    1.741788   0.743465   0.490830   0.743465   1.741788   2.722249
 Mulliken charges and spin densities:
               1          2
     1  C    0.338065  -0.560060
     2  C    0.338070  -0.560065
     3  C    0.336308  -0.558446
     4  C    0.338070  -0.560064
     5  C    0.338065  -0.560060
     6  C    0.336313  -0.558451
     7  H   -0.503864   0.725905
     8  H   -0.503864   0.725904
     9  H   -0.504717   0.726764
    10  H   -0.503864   0.725905
    11  H   -0.503864   0.725905
    12  H   -0.504717   0.726764
 Sum of Mulliken charges =  -1.00000   1.00000
 Mulliken charges and spin densities with hydrogens summed into heavy atoms:
               1          2
     1  C   -0.165800   0.165845
     2  C   -0.165793   0.165839
     3  C   -0.168410   0.168318
     4  C   -0.165794   0.165840
     5  C   -0.165799   0.165845
     6  C   -0.168404   0.168312
 Electronic spatial extent (au):  <R**2>=            540.0026
 Charge=             -1.0000 electrons
 Dipole moment (field-independent basis, Debye):
    X=             -0.0000    Y=              0.0000    Z=             -0.0000  Tot=              0.0000
 Quadrupole moment (field-independent basis, Debye-Ang):
   XX=            -79.2560   YY=            -79.2444   ZZ=            -56.7430
   XY=              0.0000   XZ=              0.0000   YZ=              0.0000
 Traceless Quadrupole moment (field-independent basis, Debye-Ang):
   XX=             -7.5082   YY=             -7.4966   ZZ=             15.0048
   XY=              0.0000   XZ=              0.0000   YZ=              0.0000
 Octapole moment (field-independent basis, Debye-Ang**2):
  XXX=              0.0000  YYY=              0.0000  ZZZ=              0.0000  XYY=              0.0000
  XXY=              0.0000  XXZ=              0.0000  XZZ=              0.0000  YZZ=              0.0000
  YYZ=             -0.0000  XYZ=             -0.0000
 Hexadecapole moment (field-independent basis, Debye-Ang**3):
 XXXX=          -1190.9302 YYYY=          -1190.4936 ZZZZ=           -208.2270 XXXY=              0.0001
 XXXZ=              0.0000 YYYX=              0.0001 YYYZ=              0.0000 ZZZX=              0.0000
 ZZZY=              0.0000 XXYY=           -396.8817 XXZZ=           -195.4270 YYZZ=           -195.3765
 XXYZ=              0.0000 YYXZ=             -0.0000 ZZXY=              0.0000
 N-N= 2.039742416542D+02 E-N=-9.512790538276D+02  KE= 2.310886961558D+02
                          Isotropic Fermi Contact Couplings
        Atom                 a.u.       MegaHertz       Gauss      10(-4) cm-1
     1  C(13)              0.01149      12.92023       4.61026       4.30973
     2  C(13)              0.01149      12.92023       4.61026       4.30972
     3  C(13)              0.01150      12.92328       4.61135       4.31074
     4  C(13)              0.01149      12.92023       4.61026       4.30973
     5  C(13)              0.01149      12.92023       4.61026       4.30972
     6  C(13)              0.01150      12.92327       4.61135       4.31074
     7  H(1)              -0.00040      -1.77995      -0.63513      -0.59373
     8  H(1)              -0.00040      -1.77995      -0.63513      -0.59373
     9  H(1)              -0.00040      -1.78043      -0.63530      -0.59389
    10  H(1)              -0.00040      -1.77995      -0.63513      -0.59373
    11  H(1)              -0.00040      -1.77995      -0.63513      -0.59373
    12  H(1)              -0.00040      -1.78043      -0.63530      -0.59389
 --------------------------------------------------------
       Center         ----  Spin Dipole Couplings  ----
                      3XX-RR        3YY-RR        3ZZ-RR
 --------------------------------------------------------
     1   Atom        0.000759      0.003102     -0.003861
     2   Atom        0.000759      0.003102     -0.003861
     3   Atom        0.004273     -0.000411     -0.003861
     4   Atom        0.000759      0.003102     -0.003861
     5   Atom        0.000759      0.003102     -0.003861
     6   Atom        0.004273     -0.000411     -0.003861
     7   Atom        0.000334      0.001897     -0.002231
     8   Atom        0.000334      0.001897     -0.002231
     9   Atom        0.002679     -0.000448     -0.002231
    10   Atom        0.000334      0.001897     -0.002231
    11   Atom        0.000334      0.001897     -0.002231
    12   Atom        0.002679     -0.000448     -0.002231
 --------------------------------------------------------
                        XY            XZ            YZ
 --------------------------------------------------------
     1   Atom       -0.002027     -0.000000      0.000000
     2   Atom        0.002027     -0.000000     -0.000000
     3   Atom        0.000000      0.000000     -0.000000
     4   Atom       -0.002027      0.000000     -0.000000
     5   Atom        0.002027     -0.000000     -0.000000
     6   Atom        0.000000      0.000000     -0.000000
     7   Atom       -0.001354     -0.000000      0.000000
     8   Atom        0.001354      0.000000      0.000000
     9   Atom        0.000000     -0.000000     -0.000000
    10   Atom       -0.001354      0.000000      0.000000
    11   Atom        0.001354     -0.000000      0.000000
    12   Atom        0.000000      0.000000     -0.000000
 --------------------------------------------------------


 ---------------------------------------------------------------------------------
              Anisotropic Spin Dipole Couplings in Principal Axis System
 ---------------------------------------------------------------------------------

       Atom             a.u.   MegaHertz   Gauss  10(-4) cm-1        Axes

              Baa    -0.0039    -0.518    -0.185    -0.173  0.0000 -0.0000  1.0000
     1 C(13)  Bbb    -0.0004    -0.055    -0.020    -0.018  0.8661  0.4998 -0.0000
              Bcc     0.0043     0.573     0.205     0.191 -0.4998  0.8661  0.0000
 
              Baa    -0.0039    -0.518    -0.185    -0.173  0.0000  0.0000  1.0000
     2 C(13)  Bbb    -0.0004    -0.055    -0.020    -0.018  0.8661 -0.4998  0.0000
              Bcc     0.0043     0.573     0.205     0.191  0.4998  0.8661 -0.0000
 
              Baa    -0.0039    -0.518    -0.185    -0.173 -0.0000  0.0000  1.0000
     3 C(13)  Bbb    -0.0004    -0.055    -0.020    -0.018 -0.0000  1.0000 -0.0000
              Bcc     0.0043     0.573     0.205     0.191  1.0000  0.0000  0.0000
 
              Baa    -0.0039    -0.518    -0.185    -0.173 -0.0000  0.0000  1.0000
     4 C(13)  Bbb    -0.0004    -0.055    -0.020    -0.018  0.8661  0.4998  0.0000
              Bcc     0.0043     0.573     0.205     0.191 -0.4998  0.8661 -0.0000
 
              Baa    -0.0039    -0.518    -0.185    -0.173  0.0000  0.0000  1.0000
     5 C(13)  Bbb    -0.0004    -0.055    -0.020    -0.018  0.8661 -0.4998 -0.0000
              Bcc     0.0043     0.573     0.205     0.191  0.4998  0.8661 -0.0000
 
              Baa    -0.0039    -0.518    -0.185    -0.173 -0.0000  0.0000  1.0000
     6 C(13)  Bbb    -0.0004    -0.055    -0.020    -0.018 -0.0000  1.0000 -0.0000
              Bcc     0.0043     0.573     0.205     0.191  1.0000  0.0000  0.0000
 
              Baa    -0.0022    -1.190    -0.425    -0.397  0.0000 -0.0000  1.0000
     7 H(1)   Bbb    -0.0004    -0.239    -0.085    -0.080  0.8660  0.5000  0.0000
              Bcc     0.0027     1.429     0.510     0.477 -0.5000  0.8660  0.0000
 
              Baa    -0.0022    -1.190    -0.425    -0.397 -0.0000 -0.0000  1.0000
     8 H(1)   Bbb    -0.0004    -0.239    -0.085    -0.080  0.8660 -0.5000 -0.0000
              Bcc     0.0027     1.429     0.510     0.477  0.5000  0.8660  0.0000
 
              Baa    -0.0022    -1.191    -0.425    -0.397  0.0000  0.0000  1.0000
     9 H(1)   Bbb    -0.0004    -0.239    -0.085    -0.080 -0.0000  1.0000 -0.0000
              Bcc     0.0027     1.429     0.510     0.477  1.0000  0.0000 -0.0000
 
              Baa    -0.0022    -1.190    -0.425    -0.397 -0.0000 -0.0000  1.0000
    10 H(1)   Bbb    -0.0004    -0.239    -0.085    -0.080  0.8660  0.5000  0.0000
              Bcc     0.0027     1.429     0.510     0.477 -0.5000  0.8660  0.0000
 
              Baa    -0.0022    -1.190    -0.425    -0.397  0.0000 -0.0000  1.0000
    11 H(1)   Bbb    -0.0004    -0.239    -0.085    -0.080  0.8660 -0.5000 -0.0000
              Bcc     0.0027     1.429     0.510     0.477  0.5000  0.8660  0.0000
 
              Baa    -0.0022    -1.191    -0.425    -0.397 -0.0000  0.0000  1.0000
    12 H(1)   Bbb    -0.0004    -0.239    -0.085    -0.080 -0.0000  1.0000 -0.0000
              Bcc     0.0027     1.429     0.510     0.477  1.0000  0.0000  0.0000
 

 ---------------------------------------------------------------------------------

 No NMR shielding tensors so no spin-rotation constants.
 Leave Link  601 at Thu Jan 30 14:34:01 2025, MaxMem=   104857600 cpu:               0.1 elap:               0.1
 (Enter /sw/cluster/pub/apps//g16/l701.exe)
 ... and contract with generalized density number  0.
 Compute integral first derivatives.
 Leave Link  701 at Thu Jan 30 14:34:01 2025, MaxMem=   104857600 cpu:               0.0 elap:               0.0
 (Enter /sw/cluster/pub/apps//g16/l702.exe)
 L702 exits ... SP integral derivatives will be done elsewhere.
 Leave Link  702 at Thu Jan 30 14:34:01 2025, MaxMem=   104857600 cpu:               0.0 elap:               0.0
 (Enter /sw/cluster/pub/apps//g16/l703.exe)
 Integral derivatives from FoFJK, PRISM(SPDF).
 Compute integral first derivatives, UseDBF=F ICtDFT=           0.
 Calling FoFJK, ICntrl=      2127 FMM=F ISym2X=0 I1Cent= 0 IOpClX= 1 NMat=1 NMatS=1 NMatT=0.
 FoFJK:  IHMeth= 1 ICntrl=    2127 DoSepK=F KAlg= 0 I1Cent=           0 FoldK=F
 IRaf=         0 NMat=       1 IRICut=       1 DoRegI=T DoRafI=F ISym2E= 0 IDoP0=0 IntGTp=1.
 FoFCou: FMM=F IPFlag=           0 FMFlag=      100000 FMFlg1=         800
         NFxFlg=           0 DoJE=F BraDBF=F KetDBF=F FulRan=T
         wScrn=  0.000000 ICntrl=      2127 IOpCl=  1 I1Cent=           0 NGrid=           0
         NMat0=    1 NMatS0=      1 NMatT0=    0 NMatD0=    1 NMtDS0=    0 NMtDT0=    0
 Symmetry not used in FoFCou.
 Leave Link  703 at Thu Jan 30 14:34:08 2025, MaxMem=   104857600 cpu:               7.0 elap:               7.0
 (Enter /sw/cluster/pub/apps//g16/l716.exe)
 Dipole        =-1.29105941D-07 5.82287701D-07-1.71176199D-15
 -------------------------------------------------------------------
 Center     Atomic                   Forces (Hartrees/Bohr)
 Number     Number              X              Y              Z
 -------------------------------------------------------------------
      1        6           0.001085243   -0.001824713    0.000000000
      2        6          -0.001085194   -0.001824708   -0.000000000
      3        6          -0.002142795    0.000000010    0.000000000
      4        6          -0.001085430    0.001824657   -0.000000000
      5        6           0.001085495    0.001824620    0.000000000
      6        6           0.002142732    0.000000046   -0.000000000
      7        1          -0.001013014    0.001754423    0.000000000
      8        1           0.001012998    0.001754419   -0.000000000
      9        1           0.002028042    0.000000029    0.000000000
     10        1           0.001013005   -0.001754398   -0.000000000
     11        1          -0.001013038   -0.001754395    0.000000000
     12        1          -0.002028044    0.000000009   -0.000000000
 -------------------------------------------------------------------
 Cartesian Forces:  Max     0.002142795 RMS     0.001200173
 Leave Link  716 at Thu Jan 30 14:34:08 2025, MaxMem=   104857600 cpu:               0.0 elap:               0.0
 (Enter /sw/cluster/pub/apps//g16/l103.exe)

 GradGradGradGradGradGradGradGradGradGradGradGradGradGradGradGradGradGrad
 Berny optimization.
 FormGI is forming the generalized inverse of G from B-inverse, IUseBI=4.
 Internal  Forces:  Max     0.002028044 RMS     0.000676449
 Search for a local minimum.
 Step number   1 out of a maximum of   64
 All quantities printed in internal units (Hartrees-Bohrs-Radians)
 RMS Force = .67645D-03 SwitMx=.10000D-02 MixMth= 2
 Mixed Optimization -- En-DIIS/RFO-DIIS
 Second derivative matrix not updated -- first step.
 ITU=  0
     Eigenvalues ---    0.02212   0.02212   0.02212   0.02212   0.02212
     Eigenvalues ---    0.02212   0.02213   0.02213   0.02213   0.16000
     Eigenvalues ---    0.16000   0.16000   0.16000   0.16000   0.16000
     Eigenvalues ---    0.22000   0.22000   0.22000   0.35360   0.35360
     Eigenvalues ---    0.35360   0.35360   0.35361   0.35361   0.42705
     Eigenvalues ---    0.42709   0.47200   0.47205   0.47207   0.47207
 RFO step:  Lambda=-6.98205504D-05 EMin= 2.21218117D-02
 Linear search not attempted -- first point.
 Iteration  1 RMS(Cart)=  0.00183919 RMS(Int)=  0.00000002
 Iteration  2 RMS(Cart)=  0.00000003 RMS(Int)=  0.00000000
 ITry= 1 IFail=0 DXMaxC= 5.41D-03 DCOld= 1.00D+10 DXMaxT= 3.00D-01 DXLimC= 3.00D+00 Rises=F
 Variable       Old X    -DE/DX   Delta X   Delta X   Delta X     New X
                                 (Linear)    (Quad)   (Total)
    R1        2.62801  -0.00013   0.00000  -0.00027  -0.00027   2.62773
    R2        2.62793  -0.00009   0.00000  -0.00019  -0.00019   2.62774
    R3        2.05094   0.00203   0.00000   0.00573   0.00573   2.05667
    R4        2.62793  -0.00009   0.00000  -0.00019  -0.00019   2.62774
    R5        2.05094   0.00203   0.00000   0.00573   0.00573   2.05667
    R6        2.62793  -0.00009   0.00000  -0.00019  -0.00019   2.62774
    R7        2.05093   0.00203   0.00000   0.00573   0.00573   2.05666
    R8        2.62801  -0.00013   0.00000  -0.00027  -0.00027   2.62773
    R9        2.05094   0.00203   0.00000   0.00573   0.00573   2.05667
   R10        2.62793  -0.00009   0.00000  -0.00019  -0.00019   2.62774
   R11        2.05094   0.00203   0.00000   0.00573   0.00573   2.05667
   R12        2.05093   0.00203   0.00000   0.00573   0.00573   2.05666
    A1        2.09443  -0.00001   0.00000  -0.00004  -0.00004   2.09439
    A2        2.09435   0.00000   0.00000   0.00002   0.00002   2.09437
    A3        2.09440   0.00000   0.00000   0.00002   0.00002   2.09442
    A4        2.09443  -0.00001   0.00000  -0.00004  -0.00004   2.09439
    A5        2.09435   0.00000   0.00000   0.00002   0.00002   2.09437
    A6        2.09440   0.00000   0.00000   0.00002   0.00002   2.09442
    A7        2.09432   0.00002   0.00000   0.00008   0.00008   2.09440
    A8        2.09443  -0.00001   0.00000  -0.00004  -0.00004   2.09439
    A9        2.09443  -0.00001   0.00000  -0.00004  -0.00004   2.09439
   A10        2.09443  -0.00001   0.00000  -0.00004  -0.00004   2.09439
   A11        2.09440   0.00000   0.00000   0.00002   0.00002   2.09442
   A12        2.09435   0.00000   0.00000   0.00002   0.00002   2.09437
   A13        2.09443  -0.00001   0.00000  -0.00004  -0.00004   2.09439
   A14        2.09435   0.00000   0.00000   0.00002   0.00002   2.09437
   A15        2.09440   0.00000   0.00000   0.00002   0.00002   2.09442
   A16        2.09432   0.00002   0.00000   0.00008   0.00008   2.09440
   A17        2.09443  -0.00001   0.00000  -0.00004  -0.00004   2.09439
   A18        2.09443  -0.00001   0.00000  -0.00004  -0.00004   2.09439
    D1        0.00000  -0.00000   0.00000  -0.00000   0.00000   0.00000
    D2        3.14159  -0.00000   0.00000  -0.00000   0.00000   3.14159
    D3        3.14159  -0.00000   0.00000  -0.00000   0.00000   3.14159
    D4        0.00000  -0.00000   0.00000  -0.00000  -0.00000   0.00000
    D5        0.00000   0.00000   0.00000   0.00000  -0.00000   0.00000
    D6        3.14159   0.00000   0.00000   0.00000   0.00000   3.14159
    D7        3.14159   0.00000   0.00000   0.00000   0.00000   3.14159
    D8        0.00000   0.00000   0.00000   0.00000   0.00000   0.00000
    D9        0.00000   0.00000   0.00000   0.00000  -0.00000   0.00000
   D10        3.14159   0.00000   0.00000   0.00000   0.00000   3.14159
   D11        3.14159   0.00000   0.00000   0.00000   0.00000   3.14159
   D12        0.00000   0.00000   0.00000   0.00000   0.00000   0.00000
   D13        0.00000  -0.00000   0.00000  -0.00000   0.00000   0.00000
   D14        3.14159  -0.00000   0.00000  -0.00000   0.00000   3.14159
   D15        3.14159  -0.00000   0.00000  -0.00000   0.00000   3.14159
   D16        0.00000  -0.00000   0.00000  -0.00000  -0.00000   0.00000
   D17        0.00000   0.00000   0.00000   0.00000  -0.00000   0.00000
   D18        3.14159   0.00000   0.00000   0.00000   0.00000   3.14159
   D19        3.14159   0.00000   0.00000   0.00000   0.00000   3.14159
   D20        0.00000   0.00000   0.00000   0.00000   0.00000   0.00000
   D21        0.00000  -0.00000   0.00000  -0.00000   0.00000   0.00000
   D22        3.14159  -0.00000   0.00000  -0.00000   0.00000   3.14159
   D23        3.14159  -0.00000   0.00000  -0.00000   0.00000   3.14159
   D24        0.00000  -0.00000   0.00000  -0.00000  -0.00000   0.00000
         Item               Value     Threshold  Converged?
 Maximum Force            0.002028     0.000450     NO 
 RMS     Force            0.000676     0.000300     NO 
 Maximum Displacement     0.005414     0.001800     NO 
 RMS     Displacement     0.001839     0.001200     NO 
 Predicted change in Energy=-3.491717D-05
 Lowest energy point so far.  Saving SCF results.
 GradGradGradGradGradGradGradGradGradGradGradGradGradGradGradGradGradGrad

 Leave Link  103 at Thu Jan 30 14:34:08 2025, MaxMem=   104857600 cpu:               0.0 elap:               0.0
 (Enter /sw/cluster/pub/apps//g16/l202.exe)
                          Input orientation:                          
 ---------------------------------------------------------------------
 Center     Atomic      Atomic             Coordinates (Angstroms)
 Number     Number       Type             X           Y           Z
 ---------------------------------------------------------------------
      1          6           0       -0.695269    1.204245    0.000000
      2          6           0        0.695268    1.204246    0.000000
      3          6           0        1.390539    0.000001   -0.000000
      4          6           0        0.695269   -1.204245    0.000000
      5          6           0       -0.695268   -1.204246   -0.000000
      6          6           0       -1.390539   -0.000001    0.000000
      7          1           0       -1.239421    2.146787    0.000000
      8          1           0        1.239418    2.146789   -0.000000
      9          1           0        2.478876    0.000002    0.000000
     10          1           0        1.239421   -2.146788   -0.000000
     11          1           0       -1.239418   -2.146789    0.000000
     12          1           0       -2.478876   -0.000002   -0.000000
 ---------------------------------------------------------------------
                    Distance matrix (angstroms):
                    1          2          3          4          5
     1  C    0.000000
     2  C    1.390537   0.000000
     3  C    2.408485   1.390543   0.000000
     4  C    2.781083   2.408492   1.390543   0.000000
     5  C    2.408492   2.781084   2.408485   1.390537   0.000000
     6  C    1.390543   2.408485   2.781078   2.408485   1.390543
     7  H    1.088341   2.152070   3.394905   3.869425   3.394927
     8  H    2.152070   1.088341   2.152101   3.394927   3.869425
     9  H    3.394909   2.152084   1.088337   2.152084   3.394909
    10  H    3.869425   3.394927   2.152101   1.088341   2.152070
    11  H    3.394927   3.869425   3.394905   2.152070   1.088341
    12  H    2.152084   3.394909   3.869415   3.394909   2.152084
                    6          7          8          9         10
     6  C    0.000000
     7  H    2.152101   0.000000
     8  H    3.394905   2.478839   0.000000
     9  H    3.869415   4.293533   2.478902   0.000000
    10  H    3.394905   4.957766   4.293577   2.478902   0.000000
    11  H    2.152101   4.293577   4.957766   4.293533   2.478838
    12  H    1.088337   2.478902   4.293533   4.957753   4.293533
                   11         12
    11  H    0.000000
    12  H    2.478902   0.000000
 Symmetry turned off by external request.
 Stoichiometry    C6H6(1-,2)
 Framework group  CS[SG(C6H6)]
 Deg. of freedom    21
 Full point group                 CS      NOp   2
 Rotational constants (GHZ):           5.7306979           5.7306332           2.8653328
 Leave Link  202 at Thu Jan 30 14:34:08 2025, MaxMem=   104857600 cpu:               0.0 elap:               0.0
 (Enter /sw/cluster/pub/apps//g16/l301.exe)
 Standard basis: 6-311++G(d,p) (5D, 7F)
 Ernie: Thresh=  0.10000D-02 Tol=  0.10000D-05 Strict=F.
   174 basis functions,   270 primitive gaussians,   180 cartesian basis functions
    22 alpha electrons       21 beta electrons
       nuclear repulsion energy       203.9029093459 Hartrees.
 IExCor= 1009 DFT=T Ex+Corr=PBE1PBE ExCW=0 ScaHFX=  0.250000
 ScaDFX=  0.750000  0.750000  1.000000  1.000000 ScalE2=  1.000000  1.000000
 IRadAn=      5 IRanWt=     -1 IRanGd=            0 ICorTp=0 IEmpDi=  4
 NAtoms=   12 NActive=   12 NUniq=   12 SFac= 1.00D+00 NAtFMM=   60 NAOKFM=F Big=F
 Integral buffers will be    131072 words long.
 Raffenetti 2 integral format.
 Two-electron integral symmetry is turned off.
 Leave Link  301 at Thu Jan 30 14:34:08 2025, MaxMem=   104857600 cpu:               0.0 elap:               0.0
 (Enter /sw/cluster/pub/apps//g16/l302.exe)
 NPDir=0 NMtPBC=     1 NCelOv=     1 NCel=       1 NClECP=     1 NCelD=      1
         NCelK=      1 NCelE2=     1 NClLst=     1 CellRange=     0.0.
 One-electron integrals computed using PRISM.
 NBasis=   174 RedAO= T EigKep=  1.03D-06  NBF=   174
 NBsUse=   174 1.00D-06 EigRej= -1.00D+00 NBFU=   174
 Precomputing XC quadrature grid using
 IXCGrd= 4 IRadAn=           5 IRanWt=          -1 IRanGd=           0 AccXCQ= 0.00D+00.
 Generated NRdTot=       0 NPtTot=           0 NUsed=           0 NTot=          32
 NSgBfM=   180   180   180   180   180 MxSgAt=    12 MxSgA2=    12.
 Leave Link  302 at Thu Jan 30 14:34:09 2025, MaxMem=   104857600 cpu:               0.1 elap:               0.1
 (Enter /sw/cluster/pub/apps//g16/l303.exe)
 DipDrv:  MaxL=1.
 Leave Link  303 at Thu Jan 30 14:34:09 2025, MaxMem=   104857600 cpu:               0.0 elap:               0.0
 (Enter /sw/cluster/pub/apps//g16/l401.exe)
 Initial guess from the checkpoint file:  "benzene-ANI.chk"
 B after Tr=     0.000000   -0.000000    0.000000
         Rot=    1.000000   -0.000000   -0.000000   -0.000000 Ang=   0.00 deg.
 Guess basis will be translated and rotated to current coordinates.
 JPrj=2 DoOrth=T DoCkMO=T.
 Initial guess <Sx>= 0.0000 <Sy>= 0.0000 <Sz>= 0.5000 <S**2>= 0.7501 S= 0.5000
 Leave Link  401 at Thu Jan 30 14:34:09 2025, MaxMem=   104857600 cpu:               0.0 elap:               0.0
 (Enter /sw/cluster/pub/apps//g16/l502.exe)
 Two-electron integral symmetry not used.
 UHF open shell SCF:
 Using DIIS extrapolation, IDIIS=  1040.
 NGot=   104857600 LenX=   104790300 LenY=   104757459
 Requested convergence on RMS density matrix=1.00D-08 within 128 cycles.
 Requested convergence on MAX density matrix=1.00D-06.
 Requested convergence on             energy=1.00D-06.
 No special actions if energy rises.
 Fock matrices will be formed incrementally for  20 cycles.

 Cycle   1  Pass 1  IDiag  1:
 FoFJK:  IHMeth= 1 ICntrl=       0 DoSepK=F KAlg= 0 I1Cent=           0 FoldK=F
 IRaf= 990000000 NMat=       1 IRICut=       1 DoRegI=T DoRafI=F ISym2E= 0 IDoP0=0 IntGTp=1.
 FoFCou: FMM=F IPFlag=           0 FMFlag=      100000 FMFlg1=           0
         NFxFlg=           0 DoJE=F BraDBF=F KetDBF=F FulRan=T
         wScrn=  0.000000 ICntrl=         0 IOpCl=  1 I1Cent=           0 NGrid=           0
         NMat0=    1 NMatS0=      1 NMatT0=    0 NMatD0=    1 NMtDS0=    0 NMtDT0=    0
 Symmetry not used in FoFCou.
 E= -231.995767074666    
 DIIS: error= 3.80D-04 at cycle   1 NSaved=   1.
 NSaved= 1 IEnMin= 1 EnMin= -231.995767074666     IErMin= 1 ErrMin= 3.80D-04
 ErrMax= 3.80D-04  0.00D+00 EMaxC= 1.00D-01 BMatC= 4.60D-05 BMatP= 4.60D-05
 IDIUse=3 WtCom= 9.96D-01 WtEn= 3.80D-03
 Coeff-Com:  0.100D+01
 Coeff-En:   0.100D+01
 Coeff:      0.100D+01
 Gap=     0.277 Goal=   None    Shift=    0.000
 Gap=     0.405 Goal=   None    Shift=    0.000
 RMSDP=6.55D-04 MaxDP=2.55D-02              OVMax= 3.67D-03

 Cycle   2  Pass 1  IDiag  1:
 RMSU=  5.85D-04    CP:  9.97D-01
 E= -231.995779619056     Delta-E=       -0.000012544390 Rises=F Damp=F
 DIIS: error= 6.03D-05 at cycle   2 NSaved=   2.
 NSaved= 2 IEnMin= 2 EnMin= -231.995779619056     IErMin= 2 ErrMin= 6.03D-05
 ErrMax= 6.03D-05  0.00D+00 EMaxC= 1.00D-01 BMatC= 1.25D-06 BMatP= 4.60D-05
 IDIUse=1 WtCom= 1.00D+00 WtEn= 0.00D+00
 Coeff-Com:  0.465D-01 0.954D+00
 Coeff:      0.465D-01 0.954D+00
 Gap=     0.027 Goal=   None    Shift=    0.000
 Gap=     0.241 Goal=   None    Shift=    0.000
 RMSDP=1.82D-04 MaxDP=5.75D-03 DE=-1.25D-05 OVMax= 9.24D-04

 Cycle   3  Pass 1  IDiag  1:
 RMSU=  6.17D-05    CP:  9.96D-01  1.01D+00
 E= -231.995780023568     Delta-E=       -0.000000404512 Rises=F Damp=F
 DIIS: error= 2.25D-05 at cycle   3 NSaved=   3.
 NSaved= 3 IEnMin= 3 EnMin= -231.995780023568     IErMin= 3 ErrMin= 2.25D-05
 ErrMax= 2.25D-05  0.00D+00 EMaxC= 1.00D-01 BMatC= 1.52D-07 BMatP= 1.25D-06
 IDIUse=1 WtCom= 1.00D+00 WtEn= 0.00D+00
 Coeff-Com: -0.830D-02 0.235D+00 0.773D+00
 Coeff:     -0.830D-02 0.235D+00 0.773D+00
 Gap=     0.027 Goal=   None    Shift=    0.000
 Gap=     0.241 Goal=   None    Shift=    0.000
 RMSDP=3.79D-05 MaxDP=1.33D-03 DE=-4.05D-07 OVMax= 1.77D-04

 Cycle   4  Pass 1  IDiag  1:
 RMSU=  9.44D-06    CP:  9.96D-01  1.00D+00  1.22D+00
 E= -231.995780068812     Delta-E=       -0.000000045244 Rises=F Damp=F
 DIIS: error= 2.87D-06 at cycle   4 NSaved=   4.
 NSaved= 4 IEnMin= 4 EnMin= -231.995780068812     IErMin= 4 ErrMin= 2.87D-06
 ErrMax= 2.87D-06  0.00D+00 EMaxC= 1.00D-01 BMatC= 2.70D-09 BMatP= 1.52D-07
 IDIUse=1 WtCom= 1.00D+00 WtEn= 0.00D+00
 Coeff-Com: -0.203D-02-0.555D-02 0.621D-01 0.945D+00
 Coeff:     -0.203D-02-0.555D-02 0.621D-01 0.945D+00
 Gap=     0.027 Goal=   None    Shift=    0.000
 Gap=     0.241 Goal=   None    Shift=    0.000
 RMSDP=2.41D-05 MaxDP=7.89D-04 DE=-4.52D-08 OVMax= 8.99D-05

 Cycle   5  Pass 1  IDiag  1:
 RMSU=  2.23D-06    CP:  9.95D-01  1.01D+00  1.34D+00  1.63D+00
 E= -231.995780070613     Delta-E=       -0.000000001801 Rises=F Damp=F
 DIIS: error= 2.51D-06 at cycle   5 NSaved=   5.
 NSaved= 5 IEnMin= 5 EnMin= -231.995780070613     IErMin= 5 ErrMin= 2.51D-06
 ErrMax= 2.51D-06  0.00D+00 EMaxC= 1.00D-01 BMatC= 1.69D-09 BMatP= 2.70D-09
 IDIUse=1 WtCom= 1.00D+00 WtEn= 0.00D+00
 Coeff-Com: -0.520D-03-0.174D-01-0.131D-01 0.493D+00 0.538D+00
 Coeff:     -0.520D-03-0.174D-01-0.131D-01 0.493D+00 0.538D+00
 Gap=     0.027 Goal=   None    Shift=    0.000
 Gap=     0.241 Goal=   None    Shift=    0.000
 RMSDP=7.60D-06 MaxDP=2.55D-04 DE=-1.80D-09 OVMax= 1.96D-05

 Cycle   6  Pass 1  IDiag  1:
 RMSU=  1.51D-06    CP:  9.95D-01  1.01D+00  1.39D+00  2.12D+00  1.64D+00
 E= -231.995780071103     Delta-E=       -0.000000000490 Rises=F Damp=F
 DIIS: error= 4.72D-07 at cycle   6 NSaved=   6.
 NSaved= 6 IEnMin= 6 EnMin= -231.995780071103     IErMin= 6 ErrMin= 4.72D-07
 ErrMax= 4.72D-07  0.00D+00 EMaxC= 1.00D-01 BMatC= 6.25D-11 BMatP= 1.69D-09
 IDIUse=1 WtCom= 1.00D+00 WtEn= 0.00D+00
 Coeff-Com:  0.275D-03-0.243D-02-0.121D-01-0.545D-01 0.127D+00 0.942D+00
 Coeff:      0.275D-03-0.243D-02-0.121D-01-0.545D-01 0.127D+00 0.942D+00
 Gap=     0.027 Goal=   None    Shift=    0.000
 Gap=     0.241 Goal=   None    Shift=    0.000
 RMSDP=8.06D-06 MaxDP=2.53D-04 DE=-4.90D-10 OVMax= 1.48D-05

 Cycle   7  Pass 1  IDiag  1:
 RMSU=  6.35D-07    CP:  9.95D-01  1.01D+00  1.43D+00  2.72D+00  2.65D+00
                    CP:  1.98D+00
 E= -231.995780071144     Delta-E=       -0.000000000041 Rises=F Damp=F
 DIIS: error= 1.22D-07 at cycle   7 NSaved=   7.
 NSaved= 7 IEnMin= 7 EnMin= -231.995780071144     IErMin= 7 ErrMin= 1.22D-07
 ErrMax= 1.22D-07  0.00D+00 EMaxC= 1.00D-01 BMatC= 3.00D-12 BMatP= 6.25D-11
 IDIUse=1 WtCom= 1.00D+00 WtEn= 0.00D+00
 Coeff-Com:  0.936D-04-0.204D-03-0.348D-02-0.286D-01 0.298D-01 0.286D+00
 Coeff-Com:  0.716D+00
 Coeff:      0.936D-04-0.204D-03-0.348D-02-0.286D-01 0.298D-01 0.286D+00
 Coeff:      0.716D+00
 Gap=     0.027 Goal=   None    Shift=    0.000
 Gap=     0.241 Goal=   None    Shift=    0.000
 RMSDP=3.80D-06 MaxDP=1.33D-04 DE=-4.07D-11 OVMax= 5.07D-06

 Cycle   8  Pass 1  IDiag  1:
 RMSU=  6.72D-07    CP:  9.95D-01  1.01D+00  1.45D+00  3.00D+00  3.00D+00
                    CP:  2.63D+00  1.61D+00
 E= -231.995780071149     Delta-E=       -0.000000000005 Rises=F Damp=F
 DIIS: error= 5.30D-08 at cycle   8 NSaved=   8.
 NSaved= 8 IEnMin= 8 EnMin= -231.995780071149     IErMin= 8 ErrMin= 5.30D-08
 ErrMax= 5.30D-08  0.00D+00 EMaxC= 1.00D-01 BMatC= 1.11D-12 BMatP= 3.00D-12
 IDIUse=1 WtCom= 1.00D+00 WtEn= 0.00D+00
 Coeff-Com: -0.223D-04 0.438D-03 0.117D-02 0.297D-03-0.146D-01-0.993D-01
 Coeff-Com:  0.356D+00 0.756D+00
 Coeff:     -0.223D-04 0.438D-03 0.117D-02 0.297D-03-0.146D-01-0.993D-01
 Coeff:      0.356D+00 0.756D+00
 Gap=     0.027 Goal=   None    Shift=    0.000
 Gap=     0.241 Goal=   None    Shift=    0.000
 RMSDP=4.07D-06 MaxDP=1.52D-04 DE=-5.40D-12 OVMax= 5.28D-06

 Cycle   9  Pass 1  IDiag  1:
 RMSU=  2.64D-06    CP:  9.95D-01  1.01D+00  1.48D+00  3.00D+00  3.00D+00
                    CP:  3.00D+00  2.48D+00  3.00D+00
 E= -231.995780071153     Delta-E=       -0.000000000004 Rises=F Damp=F
 DIIS: error= 3.01D-08 at cycle   9 NSaved=   9.
 NSaved= 9 IEnMin= 9 EnMin= -231.995780071153     IErMin= 9 ErrMin= 3.01D-08
 ErrMax= 3.01D-08  0.00D+00 EMaxC= 1.00D-01 BMatC= 3.09D-13 BMatP= 1.11D-12
 IDIUse=1 WtCom= 1.00D+00 WtEn= 0.00D+00
 Coeff-Com: -0.185D-04 0.238D-03 0.881D-03 0.231D-02-0.884D-02-0.739D-01
 Coeff-Com:  0.129D+00 0.365D+00 0.585D+00
 Coeff:     -0.185D-04 0.238D-03 0.881D-03 0.231D-02-0.884D-02-0.739D-01
 Coeff:      0.129D+00 0.365D+00 0.585D+00
 Gap=     0.027 Goal=   None    Shift=    0.000
 Gap=     0.241 Goal=   None    Shift=    0.000
 RMSDP=2.16D-06 MaxDP=8.43D-05 DE=-4.21D-12 OVMax= 2.80D-06

 Cycle  10  Pass 1  IDiag  1:
 RMSU=  6.96D-07    CP:  9.95D-01  1.01D+00  1.49D+00  3.00D+00  3.00D+00
                    CP:  3.00D+00  2.88D+00  3.00D+00  1.72D+00
 E= -231.995780071153     Delta-E=       -0.000000000000 Rises=F Damp=F
 DIIS: error= 2.28D-08 at cycle  10 NSaved=  10.
 NSaved=10 IEnMin=10 EnMin= -231.995780071153     IErMin=10 ErrMin= 2.28D-08
 ErrMax= 2.28D-08  0.00D+00 EMaxC= 1.00D-01 BMatC= 1.71D-13 BMatP= 3.09D-13
 IDIUse=1 WtCom= 1.00D+00 WtEn= 0.00D+00
 Coeff-Com:  0.114D-04-0.317D-03-0.630D-03 0.125D-02 0.121D-01 0.568D-01
 Coeff-Com: -0.322D+00-0.669D+00 0.474D+00 0.145D+01
 Coeff:      0.114D-04-0.317D-03-0.630D-03 0.125D-02 0.121D-01 0.568D-01
 Coeff:     -0.322D+00-0.669D+00 0.474D+00 0.145D+01
 Gap=     0.027 Goal=   None    Shift=    0.000
 Gap=     0.241 Goal=   None    Shift=    0.000
 RMSDP=6.56D-06 MaxDP=2.52D-04 DE=-5.68D-14 OVMax= 8.44D-06

 Cycle  11  Pass 1  IDiag  1:
 RMSU=  2.60D-06    CP:  9.95D-01  1.02D+00  1.52D+00  3.00D+00  3.00D+00
                    CP:  3.00D+00  3.00D+00  3.00D+00  3.00D+00  3.00D+00
 E= -231.995780071156     Delta-E=       -0.000000000003 Rises=F Damp=F
 DIIS: error= 9.31D-09 at cycle  11 NSaved=  11.
 NSaved=11 IEnMin=11 EnMin= -231.995780071156     IErMin=11 ErrMin= 9.31D-09
 ErrMax= 9.31D-09  0.00D+00 EMaxC= 1.00D-01 BMatC= 2.05D-14 BMatP= 1.71D-13
 IDIUse=1 WtCom= 1.00D+00 WtEn= 0.00D+00
 Coeff-Com:  0.180D-06 0.635D-04-0.135D-04-0.133D-02-0.184D-02-0.651D-02
 Coeff-Com:  0.116D+00 0.234D+00-0.429D+00-0.762D+00 0.185D+01
 Coeff:      0.180D-06 0.635D-04-0.135D-04-0.133D-02-0.184D-02-0.651D-02
 Coeff:      0.116D+00 0.234D+00-0.429D+00-0.762D+00 0.185D+01
 Gap=     0.027 Goal=   None    Shift=    0.000
 Gap=     0.241 Goal=   None    Shift=    0.000
 RMSDP=4.20D-06 MaxDP=1.62D-04 DE=-2.84D-12 OVMax= 5.38D-06

 Cycle  12  Pass 1  IDiag  1:
 RMSU=  8.52D-07    CP:  9.95D-01  1.02D+00  1.54D+00  3.00D+00  3.00D+00
                    CP:  3.00D+00  3.00D+00  3.00D+00  3.00D+00  3.00D+00
                    CP:  2.48D+00
 E= -231.995780071157     Delta-E=       -0.000000000001 Rises=F Damp=F
 DIIS: error= 1.58D-09 at cycle  12 NSaved=  12.
 NSaved=12 IEnMin=12 EnMin= -231.995780071157     IErMin=12 ErrMin= 1.58D-09
 ErrMax= 1.58D-09  0.00D+00 EMaxC= 1.00D-01 BMatC= 3.94D-16 BMatP= 2.05D-14
[...]
    R7        2.05666   0.00002   0.00000   0.00006   0.00006   2.05672
    R8        2.62773  -0.00004   0.00000  -0.00009  -0.00009   2.62765
    R9        2.05667   0.00002   0.00000   0.00006   0.00006   2.05673
   R10        2.62774  -0.00005   0.00000  -0.00010  -0.00010   2.62765
   R11        2.05667   0.00002   0.00000   0.00006   0.00006   2.05673
   R12        2.05666   0.00002   0.00000   0.00006   0.00006   2.05672
    A1        2.09439  -0.00000   0.00000  -0.00000  -0.00000   2.09439
    A2        2.09437   0.00000   0.00000   0.00003   0.00003   2.09440
    A3        2.09442  -0.00000   0.00000  -0.00002  -0.00002   2.09440
    A4        2.09439  -0.00000   0.00000  -0.00000  -0.00000   2.09439
    A5        2.09437   0.00000   0.00000   0.00003   0.00003   2.09440
    A6        2.09442  -0.00000   0.00000  -0.00002  -0.00002   2.09440
    A7        2.09440   0.00000   0.00000   0.00001   0.00001   2.09441
    A8        2.09439  -0.00000   0.00000  -0.00000  -0.00000   2.09439
    A9        2.09439  -0.00000   0.00000  -0.00000  -0.00000   2.09439
   A10        2.09439  -0.00000   0.00000  -0.00000  -0.00000   2.09439
   A11        2.09442  -0.00000   0.00000  -0.00002  -0.00002   2.09440
   A12        2.09437   0.00000   0.00000   0.00003   0.00003   2.09440
   A13        2.09439  -0.00000   0.00000  -0.00000  -0.00000   2.09439
   A14        2.09437   0.00000   0.00000   0.00003   0.00003   2.09440
   A15        2.09442  -0.00000   0.00000  -0.00002  -0.00002   2.09440
   A16        2.09440   0.00000   0.00000   0.00001   0.00001   2.09441
   A17        2.09439  -0.00000   0.00000  -0.00000  -0.00000   2.09439
   A18        2.09439  -0.00000   0.00000  -0.00000  -0.00000   2.09439
    D1        0.00000   0.00000   0.00000   0.00000   0.00000   0.00000
    D2        3.14159  -0.00000   0.00000  -0.00000   0.00000   3.14159
    D3        3.14159   0.00000   0.00000   0.00000   0.00000   3.14159
    D4       -0.00000  -0.00000   0.00000  -0.00000   0.00000   0.00000
    D5       -0.00000  -0.00000   0.00000  -0.00000   0.00000   0.00000
    D6        3.14159  -0.00000   0.00000  -0.00000   0.00000   3.14159
    D7        3.14159   0.00000   0.00000   0.00000   0.00000   3.14159
    D8        0.00000   0.00000   0.00000   0.00000   0.00000   0.00000
    D9       -0.00000  -0.00000   0.00000  -0.00000   0.00000   0.00000
   D10        3.14159  -0.00000   0.00000  -0.00000   0.00000   3.14159
   D11        3.14159   0.00000   0.00000   0.00000   0.00000   3.14159
   D12        0.00000   0.00000   0.00000   0.00000   0.00000   0.00000
   D13        0.00000   0.00000   0.00000   0.00000   0.00000   0.00000
   D14        3.14159   0.00000   0.00000   0.00000   0.00000   3.14159
   D15        3.14159  -0.00000   0.00000  -0.00000   0.00000   3.14159
   D16       -0.00000  -0.00000   0.00000  -0.00000   0.00000   0.00000
   D17       -0.00000   0.00000   0.00000   0.00000   0.00000   0.00000
   D18        3.14159   0.00000   0.00000   0.00000   0.00000   3.14159
   D19        3.14159   0.00000   0.00000   0.00000   0.00000   3.14159
   D20        0.00000  -0.00000   0.00000  -0.00000  -0.00000   0.00000
   D21        0.00000  -0.00000   0.00000  -0.00000  -0.00000   0.00000
   D22        3.14159  -0.00000   0.00000  -0.00000   0.00000   3.14159
   D23        3.14159   0.00000   0.00000   0.00000   0.00000   3.14159
   D24       -0.00000   0.00000   0.00000   0.00000   0.00000   0.00000
         Item               Value     Threshold  Converged?
 Maximum Force            0.000050     0.000450     YES
 RMS     Force            0.000018     0.000300     YES
 Maximum Displacement     0.000103     0.001800     YES
 RMS     Displacement     0.000036     0.001200     YES
 Predicted change in Energy=-1.763041D-08
 Optimization completed.
    -- Stationary point found.
                           ----------------------------
                           !   Optimized Parameters   !
                           ! (Angstroms and Degrees)  !
 --------------------------                            --------------------------
 ! Name  Definition              Value          Derivative Info.                !
 --------------------------------------------------------------------------------
 ! R1    R(1,2)                  1.3905         -DE/DX =    0.0                 !
 ! R2    R(1,6)                  1.3905         -DE/DX =   -0.0001              !
 ! R3    R(1,7)                  1.0883         -DE/DX =    0.0                 !
 ! R4    R(2,3)                  1.3905         -DE/DX =   -0.0001              !
 ! R5    R(2,8)                  1.0883         -DE/DX =    0.0                 !
 ! R6    R(3,4)                  1.3905         -DE/DX =   -0.0001              !
 ! R7    R(3,9)                  1.0883         -DE/DX =    0.0                 !
 ! R8    R(4,5)                  1.3905         -DE/DX =    0.0                 !
 ! R9    R(4,10)                 1.0883         -DE/DX =    0.0                 !
 ! R10   R(5,6)                  1.3905         -DE/DX =   -0.0001              !
 ! R11   R(5,11)                 1.0883         -DE/DX =    0.0                 !
 ! R12   R(6,12)                 1.0883         -DE/DX =    0.0                 !
 ! A1    A(2,1,6)              120.0            -DE/DX =    0.0                 !
 ! A2    A(2,1,7)              119.9988         -DE/DX =    0.0                 !
 ! A3    A(6,1,7)              120.0013         -DE/DX =    0.0                 !
 ! A4    A(1,2,3)              120.0            -DE/DX =    0.0                 !
 ! A5    A(1,2,8)              119.9988         -DE/DX =    0.0                 !
 ! A6    A(3,2,8)              120.0013         -DE/DX =    0.0                 !
 ! A7    A(2,3,4)              120.0001         -DE/DX =    0.0                 !
 ! A8    A(2,3,9)              120.0            -DE/DX =    0.0                 !
 ! A9    A(4,3,9)              120.0            -DE/DX =    0.0                 !
 ! A10   A(3,4,5)              120.0            -DE/DX =    0.0                 !
 ! A11   A(3,4,10)             120.0013         -DE/DX =    0.0                 !
 ! A12   A(5,4,10)             119.9988         -DE/DX =    0.0                 !
 ! A13   A(4,5,6)              120.0            -DE/DX =    0.0                 !
 ! A14   A(4,5,11)             119.9988         -DE/DX =    0.0                 !
 ! A15   A(6,5,11)             120.0013         -DE/DX =    0.0                 !
 ! A16   A(1,6,5)              120.0001         -DE/DX =    0.0                 !
 ! A17   A(1,6,12)             120.0            -DE/DX =    0.0                 !
 ! A18   A(5,6,12)             120.0            -DE/DX =    0.0                 !
 ! D1    D(6,1,2,3)              0.0            -DE/DX =    0.0                 !
 ! D2    D(6,1,2,8)            180.0            -DE/DX =    0.0                 !
 ! D3    D(7,1,2,3)            180.0            -DE/DX =    0.0                 !
 ! D4    D(7,1,2,8)              0.0            -DE/DX =    0.0                 !
 ! D5    D(2,1,6,5)              0.0            -DE/DX =    0.0                 !
 ! D6    D(2,1,6,12)           180.0            -DE/DX =    0.0                 !
 ! D7    D(7,1,6,5)            180.0            -DE/DX =    0.0                 !
 ! D8    D(7,1,6,12)             0.0            -DE/DX =    0.0                 !
 ! D9    D(1,2,3,4)              0.0            -DE/DX =    0.0                 !
 ! D10   D(1,2,3,9)            180.0            -DE/DX =    0.0                 !
 ! D11   D(8,2,3,4)            180.0            -DE/DX =    0.0                 !
 ! D12   D(8,2,3,9)              0.0            -DE/DX =    0.0                 !
 ! D13   D(2,3,4,5)              0.0            -DE/DX =    0.0                 !
 ! D14   D(2,3,4,10)           180.0            -DE/DX =    0.0                 !
 ! D15   D(9,3,4,5)            180.0            -DE/DX =    0.0                 !
 ! D16   D(9,3,4,10)             0.0            -DE/DX =    0.0                 !
 ! D17   D(3,4,5,6)              0.0            -DE/DX =    0.0                 !
 ! D18   D(3,4,5,11)           180.0            -DE/DX =    0.0                 !
 ! D19   D(10,4,5,6)           180.0            -DE/DX =    0.0                 !
 ! D20   D(10,4,5,11)            0.0            -DE/DX =    0.0                 !
 ! D21   D(4,5,6,1)              0.0            -DE/DX =    0.0                 !
 ! D22   D(4,5,6,12)           180.0            -DE/DX =    0.0                 !
 ! D23   D(11,5,6,1)           180.0            -DE/DX =    0.0                 !
 ! D24   D(11,5,6,12)            0.0            -DE/DX =    0.0                 !
 --------------------------------------------------------------------------------
 GradGradGradGradGradGradGradGradGradGradGradGradGradGradGradGradGradGrad

 Leave Link  103 at Thu Jan 30 14:39:39 2025, MaxMem=   104857600 cpu:               0.0 elap:               0.0
 (Enter /sw/cluster/pub/apps//g16/l9999.exe)

 ----------------------------------------------------------------------

 Electric dipole moment (input orientation):
 (Debye = 10**-18 statcoulomb cm , SI units = C m)
                  (au)            (Debye)         (10**-30 SI)
   Tot        0.000000D+00      0.000000D+00      0.000000D+00
   x          0.000000D+00      0.000000D+00      0.000000D+00
   y          0.000000D+00      0.000000D+00      0.000000D+00
   z          0.000000D+00      0.000000D+00      0.000000D+00

 Dipole polarizability, Alpha (input orientation).
 (esu units = cm**3 , SI units = C**2 m**2 J**-1)
 Alpha(0;0):
               (au)            (10**-24 esu)      (10**-40 SI)
   iso        0.387992D+04      0.574945D+03      0.639712D+03
   aniso      0.558928D+04      0.828245D+03      0.921547D+03
   xx         0.572764D+04      0.848748D+03      0.944360D+03
   yx         0.000000D+00      0.000000D+00      0.000000D+00
   yy         0.575834D+04      0.853299D+03      0.949423D+03
   zx         0.000000D+00      0.000000D+00      0.000000D+00
   zy         0.000000D+00      0.000000D+00      0.000000D+00
   zz         0.153779D+03      0.227876D+02      0.253547D+02

 ----------------------------------------------------------------------

 Dipole orientation:
     6         -1.77742144          0.45187914          1.88191701
     6          0.69086970         -0.17543710          2.52921993
     6          2.46829435         -0.62731705          0.64730358
     6          1.77742125         -0.45187909         -1.88191730
     6         -0.69087006          0.17543719         -2.52922027
     6         -2.46829457          0.62731711         -0.64730400
     1         -3.16853584          0.80554630          3.35487253
     1          1.23155890         -0.31273786          4.50878589
     1          4.40016181         -1.11830120          1.15393072
     1          3.16853552         -0.80554622         -3.35487294
     1         -1.23155892          0.31273786         -4.50878632
     1         -4.40016203          1.11830126         -1.15393113

 Electric dipole moment (dipole orientation):
 (Debye = 10**-18 statcoulomb cm , SI units = C m)
                  (au)            (Debye)         (10**-30 SI)
   Tot        0.000000D+00      0.000000D+00      0.000000D+00
   x          0.000000D+00      0.000000D+00      0.000000D+00
   y          0.000000D+00      0.000000D+00      0.000000D+00
   z          0.000000D+00      0.000000D+00      0.000000D+00

 Dipole polarizability, Alpha (dipole orientation).
 (esu units = cm**3 , SI units = C**2 m**2 J**-1)
 Alpha(0;0):
               (au)            (10**-24 esu)      (10**-40 SI)
   iso        0.387992D+04      0.574945D+03      0.639712D+03
   aniso      0.558928D+04      0.828245D+03      0.921547D+03
   xx         0.539116D+04      0.798888D+03      0.888883D+03
   yx        -0.133117D+04     -0.197259D+03     -0.219480D+03
   yy         0.492117D+03      0.729242D+02      0.811391D+02
   zx        -0.702087D+01     -0.104039D+01     -0.115759D+01
   zy         0.213631D+01      0.316568D+00      0.352229D+00
   zz         0.575648D+04      0.853022D+03      0.949115D+03

 ----------------------------------------------------------------------
 1\1\GINC-N11\Freq\UPBE1PBE\6-311++G(d,p)\C6H6(1-,2)\UNKNOWN\30-Jan-202
 5\0\\#P Geom=AllCheck Guess=TCheck SCRF=Check GenChk UPBE1PBE/6-311++G
 (d,p) Freq\\benzene SP\\-1,2\C,-0.6952694809,1.2042452547,0.\C,0.69526
 76623,1.2042462093,0.\C,1.3905389263,0.0000008625,0.\C,0.6952693421,-1
 .2042453765,0.\C,-0.6952678948,-1.2042463364,0.\C,-1.3905390952,-0.000
 0010479,0.\H,-1.2394208083,2.146787413,0.\H,1.2394177106,2.1467891101,
 0.\H,2.4788762722,0.0000015757,0.\H,1.2394205835,-2.1467875839,0.\H,-1
 .2394177775,-2.1467893263,0.\H,-2.4788764453,-0.0000017604,0.\\Version
 =ES64L-G16RevA.03\HF=-231.9957801\S2=0.750098\S2-1=0.\S2A=0.75\RMSD=1.
 625e-09\RMSF=2.919e-05\ZeroPoint=0.099706\Thermal=0.1041586\Dipole=0.,
 0.0000002,0.\DipoleDeriv=0.0499046,-0.261782,0.,-0.2604636,0.3347445,0
 .,0.,-0.0000002,0.2065579,0.049904,0.2617813,0.,0.2604632,0.3347453,0.
 ,0.0000002,0.,0.2065575,0.4979406,0.0000007,0.,0.0000008,-0.1025165,0.
 ,0.,0.0000002,0.20507,0.0499046,-0.2617817,0.,-0.2604638,0.3347445,0.,
 0.,0.,0.2065575,0.049904,0.2617807,0.,0.2604636,0.334745,0.,0.,0.,0.20
 6558,0.4979408,0.0000008,0.,0.0000004,-0.1025166,0.,0.,0.0000001,0.205
 0695,-0.5519088,-0.3163206,0.,-0.3124244,-0.1630366,0.,0.,0.,-0.373166
 5,-0.5519096,0.3163202,0.,0.3124239,-0.163036,0.,-0.0000001,0.,-0.3731
 664,0.0060691,0.0000007,0.,0.0000003,-0.7409006,0.,0.,0.,-0.3718523,-0
 .5519087,-0.3163208,0.,-0.3124245,-0.1630364,0.,0.,0.,-0.3731665,-0.55
 19097,0.3163201,0.,0.3124237,-0.163036,0.,0.,-0.0000002,-0.3731666,0.0
 060691,0.0000007,0.,0.0000005,-0.7409006,0.,0.,0.0000002,-0.3718522\Po
 lar=5727.6381673,-0.0000083,5758.3437577,-0.0000028,0.0000003,153.7785
 759\Quadrupole=-5.5916948,-5.5929046,11.1845994,0.0000002,0.,0.\PG=CS 
 [SG(C6H6)]\NImag=0\\0.69249867,-0.01734290,0.71243910,0.,0.,0.13489794
 ,-0.35144170,0.03529184,0.,0.69249862,-0.03529216,-0.11960378,0.,0.017
 34286,0.71243915,0.,0.,-0.06292490,0.,0.,0.13489794,-0.02288963,0.0228
 5462,0.,-0.17755461,0.13572815,0.,0.72249738,0.07681948,0.03464635,0.,
 0.06511150,-0.29347960,0.,0.00000009,0.68244716,0.,0.,0.00852293,0.,0.
 ,-0.06297290,0.,0.,0.13483535,-0.05482124,-0.02806652,0.,0.06340693,-0
 .02699600,0.,-0.17755437,-0.06511141,0.,0.69249847,-0.02806653,-0.0223
 6657,0.,0.02699616,-0.05162675,0.,-0.13572806,-0.29347999,0.,-0.017342
 81,0.71243926,0.,0.,-0.00861459,0.,0.,0.00848556,0.,0.,-0.06297289,0.,
 0.,0.13489795,0.06340693,0.02699616,0.,-0.05482131,0.02806648,0.,-0.02
 288949,-0.07681956,0.,-0.35144148,0.03529184,0.,0.69249840,-0.02699600
 ,-0.05162675,0.,0.02806648,-0.02236650,0.,-0.02285470,0.03464621,0.,-0
 .03529216,-0.11960379,0.,0.01734276,0.71243936,0.,0.,0.00848556,0.,0.,
 -0.00861459,0.,0.,0.00852292,0.,0.,-0.06292493,0.,0.,0.13489795,-0.177
 55433,-0.13572799,0.,-0.02288949,-0.02285470,0.,-0.00617961,0.00000004
 ,0.,-0.02288963,0.02285462,0.,-0.17755465,0.13572824,0.,0.72249737,-0.
 06511134,-0.29347986,0.,-0.07681956,0.03464621,0.,0.00000005,-0.071007
 16,0.,0.07681948,0.03464635,0.,0.06511158,-0.29347975,0.,-0.00000007,0
 .68244719,0.,0.,-0.06297290,0.,0.,0.00852292,0.,0.,-0.00859060,0.,0.,0
 .00852293,0.,0.,-0.06297290,0.,0.,0.13483535,-0.12582329,0.11754149,0.
 ,-0.01122888,0.02737732,0.,-0.00512756,-0.00071922,0.,-0.00108281,-0.0
 0090856,0.,-0.00052476,-0.00250310,0.,0.01186442,-0.01488501,0.,0.1298
 9984,0.11754237,-0.26152046,0.,-0.00155581,0.00467428,0.,0.00014519,0.
 00133596,0.,-0.00090738,-0.00003645,0.,-0.00338306,-0.00328928,0.,0.01
 406830,-0.01843925,0.,-0.12700646,0.27653495,0.,0.,-0.03761578,0.,0.,0
 .00333156,0.,0.,0.00733893,0.,0.,-0.00114158,0.,0.,0.00734548,0.,0.,0.
 00334897,0.,0.,0.02559312,-0.01122885,-0.02737734,0.,-0.12582297,-0.11
 754130,0.,0.01186441,0.01488505,0.,-0.00052477,0.00250310,0.,-0.001082
 81,0.00090856,0.,-0.00512756,0.00071921,0.,0.00158661,-0.00005395,0.,0
 .12989949,0.00155579,0.00467424,0.,-0.11754219,-0.26152077,0.,-0.01406
 826,-0.01843925,0.,0.00338306,-0.00328928,0.,0.00090738,-0.00003645,0.
 ,-0.00014520,0.00133596,0.,0.00005395,-0.00016003,0.,0.12700626,0.2765
 3529,0.,0.,0.00333156,0.,0.,-0.03761577,0.,0.,0.00334897,0.,0.,0.00734
 548,0.,0.,-0.00114158,0.,0.,0.00733893,0.,0.,-0.00378421,0.,0.,0.02559
 312,-0.00004024,0.00309583,0.,-0.01049878,-0.00114030,0.,-0.32939315,-
 0.00000018,0.,-0.01049875,0.00114028,0.,-0.00004023,-0.00309582,0.,0.0
 0048978,0.,0.,-0.00012465,-0.00099758,0.,0.00029138,-0.00079927,0.,0.3
 4986475,0.00221809,-0.00375931,0.,0.02780249,0.00392281,0.,-0.00000018
 ,-0.05795487,0.,-0.02780251,0.00392277,0.,-0.00221809,-0.00375931,0.,0
 .,-0.00161151,0.,0.00123073,0.00001191,0.,-0.00069728,0.00115998,0.,0.
 00000020,0.05656350,0.,0.,0.00733363,0.,0.,0.00335266,0.,0.,-0.0375772
 6,0.,0.,0.00335267,0.,0.,0.00733363,0.,0.,-0.00114335,0.,0.,0.00031255
 ,0.,0.,-0.00380366,0.,0.,0.02555258,-0.00108280,-0.00090856,0.,-0.0005
 2476,-0.00250310,0.,0.01186441,-0.01488501,0.,-0.12582327,0.11754147,0
 .,-0.01122888,0.02737732,0.,-0.00512756,-0.00071922,0.,0.00019177,0.00
 023534,0.,0.00007793,-0.00111376,0.,0.00029138,0.00069728,0.,0.1298998
 2,-0.00090738,-0.00003645,0.,-0.00338305,-0.00328928,0.,0.01406830,-0.
 01843925,0.,0.11754236,-0.26152048,0.,-0.00155581,0.00467428,0.,0.0001
 4519,0.00133596,0.,0.00023534,-0.00008194,0.,0.00111376,-0.00018967,0.
 ,0.00079927,0.00115998,0.,-0.12700645,0.27653497,0.,0.,-0.00114158,0.,
 0.,0.00734548,0.,0.,0.00334897,0.,0.,-0.03761577,0.,0.,0.00333156,0.,0
 .,0.00733893,0.,0.,-0.00122855,0.,0.,0.00030317,0.,0.,-0.00380366,0.,0
 .,0.02559312,-0.00052477,0.00250310,0.,-0.00108281,0.00090856,0.,-0.00
 512756,0.00071921,0.,-0.01122885,-0.02737735,0.,-0.12582293,-0.1175412
 8,0.,0.01186441,0.01488505,0.,0.00007793,0.00111376,0.,0.00019178,-0.0
 0023534,0.,-0.00012465,-0.00123073,0.,0.00158661,-0.00005395,0.,0.1298
 9946,0.00338306,-0.00328927,0.,0.00090737,-0.00003645,0.,-0.00014520,0
 .00133596,0.,0.00155579,0.00467424,0.,-0.11754217,-0.26152082,0.,-0.01
 406826,-0.01843924,0.,-0.00111376,-0.00018967,0.,-0.00023534,-0.000081
 94,0.,0.00099758,0.00001191,0.,0.00005395,-0.00016003,0.,0.12700624,0.
 27653533,0.,0.,0.00734548,0.,0.,-0.00114158,0.,0.,0.00733893,0.,0.,0.0
 0333156,0.,0.,-0.03761577,0.,0.,0.00334897,0.,0.,0.00030317,0.,0.,-0.0
 0122855,0.,0.,0.00031255,0.,0.,-0.00378421,0.,0.,0.02559312,-0.0104987
 5,0.00114028,0.,-0.00004023,-0.00309582,0.,0.00048979,0.,0.,-0.0000402
 4,0.00309583,0.,-0.01049879,-0.00114030,0.,-0.32939314,-0.00000018,0.,
 0.00029138,0.00079927,0.,-0.00012465,0.00099758,0.,-0.00021684,0.,0.,-
 0.00012465,-0.00099758,0.,0.00029138,-0.00079927,0.,0.34986475,-0.0278
 0251,0.00392277,0.,-0.00221809,-0.00375931,0.,0.,-0.00161151,0.,0.0022
 1809,-0.00375931,0.,0.02780249,0.00392281,0.,-0.00000018,-0.05795487,0
 .,0.00069728,0.00115998,0.,-0.00123073,0.00001191,0.,0.,0.00033216,0.,
 0.00123073,0.00001191,0.,-0.00069728,0.00115998,0.,0.00000019,0.056563
 50,0.,0.,0.00335266,0.,0.,0.00733363,0.,0.,-0.00114335,0.,0.,0.0073336
 4,0.,0.,0.00335267,0.,0.,-0.03757727,0.,0.,-0.00380366,0.,0.,0.0003125
 5,0.,0.,-0.00122234,0.,0.,0.00031255,0.,0.,-0.00380366,0.,0.,0.0255525
 8\\-0.00003173,0.00005936,0.,0.00003172,0.00005936,0.,0.00007103,-0.00
 000002,0.,0.00003180,-0.00005933,0.,-0.00003182,-0.00005932,0.,-0.0000
 7101,-0.00000003,0.,0.00001203,-0.00001546,0.,-0.00001203,-0.00001546,
 0.,-0.00002147,0.,0.,-0.00001204,0.00001546,0.,0.00001205,0.00001545,0
 .,0.00002146,0.,0.\\\@


 The mind is not a vessel to be filled but a fire to be kindled.
                                  -- Plutarch
 Job cpu time:       0 days  0 hours  4 minutes 42.3 seconds.
 Elapsed time:       0 days  0 hours  4 minutes 42.7 seconds.
 File lengths (MBytes):  RWF=     78 Int=      0 D2E=      0 Chk=      5 Scr=      1
 Normal termination of Gaussian 16 at Thu Jan 30 14:39:39 2025.
