 Entering Gaussian System, Link 0=g16
 Initial command:
 /sw/cluster/pub/apps//g16/l1.exe "/data/natrosa/28483/Gau-93675.inp" -scrdir="/data/natrosa/28483/"
 Entering Link 1 = /sw/cluster/pub/apps//g16/l1.exe PID=     93676.
  
 Copyright (c) 1988,1990,1992,1993,1995,1998,2003,2009,2016,
            Gaussian, Inc.  All Rights Reserved.
  
 This is part of the Gaussian(R) 16 program.  It is based on
 the Gaussian(R) 09 system (copyright 2009, Gaussian, Inc.),
 the Gaussian(R) 03 system (copyright 2003, Gaussian, Inc.),
 the Gaussian(R) 98 system (copyright 1998, Gaussian, Inc.),
 the Gaussian(R) 94 system (copyright 1995, Gaussian, Inc.),
 the Gaussian 92(TM) system (copyright 1992, Gaussian, Inc.),
 the Gaussian 90(TM) system (copyright 1990, Gaussian, Inc.),
 the Gaussian 88(TM) system (copyright 1988, Gaussian, Inc.),
 the Gaussian 86(TM) system (copyright 1986, Carnegie Mellon
 University), and the Gaussian 82(TM) system (copyright 1983,
 Carnegie Mellon University). Gaussian is a federally registered
 trademark of Gaussian, Inc.
  
 This software contains proprietary and confidential information,
 including trade secrets, belonging to Gaussian, Inc.
  
 This software is provided under written license and may be
 used, copied, transmitted, or stored only in accord with that
 written license.
  
 The following legend is applicable only to US Government
 contracts under FAR:
  
                    RESTRICTED RIGHTS LEGEND
  
 Use, reproduction and disclosure by the US Government is
 subject to restrictions as set forth in subparagraphs (a)
 and (c) of the Commercial Computer Software - Restricted
 Rights clause in FAR 52.227-19.
  
 Gaussian, Inc.
 340 Quinnipiac St., Bldg. 40, Wallingford CT 06492
  
  
 ---------------------------------------------------------------
 Warning -- This program may not be used in any manner that
 competes with the business of Gaussian, Inc. or will provide
 assistance to any competitor of Gaussian, Inc.  The licensee
 of this program is prohibited from giving any competitor of
 Gaussian, Inc. access to this program.  By using this program,
 the user acknowledges that Gaussian, Inc. is engaged in the
 business of creating and licensing software in the field of
 computational chemistry and represents and warrants to the
 licensee that it is not a competitor of Gaussian, Inc. and that
 it will not use this program in any manner prohibited above.
 ---------------------------------------------------------------
  

 Cite this work as:
 Gaussian 16, Revision A.03,
 M. J. Frisch, G. W. Trucks, H. B. Schlegel, G. E. Scuseria, 
 M. A. Robb, J. R. Cheeseman, G. Scalmani, V. Barone, 
 G. A. Petersson, H. Nakatsuji, X. Li, M. Caricato, A. V. Marenich, 
 J. Bloino, B. G. Janesko, R. Gomperts, B. Mennucci, H. P. Hratchian, 
 J. V. Ortiz, A. F. Izmaylov, J. L. Sonnenberg, D. Williams-Young, 
 F. Ding, F. Lipparini, F. Egidi, J. Goings, B. Peng, A. Petrone, 
 T. Henderson, D. Ranasinghe, V. G. Zakrzewski, J. Gao, N. Rega, 
 G. Zheng, W. Liang, M. Hada, M. Ehara, K. Toyota, R. Fukuda, 
 J. Hasegawa, M. Ishida, T. Nakajima, Y. Honda, O. Kitao, H. Nakai, 
 T. Vreven, K. Throssell, J. A. Montgomery, Jr., J. E. Peralta, 
 F. Ogliaro, M. J. Bearpark, J. J. Heyd, E. N. Brothers, K. N. Kudin, 
 V. N. Staroverov, T. A. Keith, R. Kobayashi, J. Normand, 
 K. Raghavachari, A. P. Rendell, J. C. Burant, S. S. Iyengar, 
 J. Tomasi, M. Cossi, J. M. Millam, M. Klene, C. Adamo, R. Cammi, 
 J. W. Ochterski, R. L. Martin, K. Morokuma, O. Farkas, 
 J. B. Foresman, and D. J. Fox, Gaussian, Inc., Wallingford CT, 2016.
 
 ******************************************
 Gaussian 16:  ES64L-G16RevA.03 25-Dec-2016
                30-Jan-2025 
 ******************************************
 %chk=benzene-CAT.chk
 --------------------------------------------------------
 #p opt freq nosymm PBE1PBE/6-311++G(d,p) density=current
 --------------------------------------------------------
 1/18=20,19=15,26=3,38=1/1,3;
 2/9=110,12=2,15=1,17=6,18=5,40=1/2;
 3/5=4,6=6,7=1111,11=2,25=1,30=1,71=1,74=-13/1,2,3;
 4//1;
 5/5=2,38=5/2;
 6/7=2,8=2,9=2,10=2,22=-1,28=1/1;
 7/30=1/1,2,3,16;
 1/18=20,19=15,26=3/3(2);
 2/9=110,15=1/2;
 99//99;
 2/9=110,15=1/2;
 3/5=4,6=6,7=1111,11=2,25=1,30=1,71=1,74=-13/1,2,3;
 4/5=5,16=3,69=1/1;
 5/5=2,38=5/2;
 7/30=1/1,2,3,16;
 1/18=20,19=15,26=3/3(-5);
 2/9=110,15=1/2;
 6/7=2,8=2,9=2,10=2,19=2,22=-1,28=1/1;
 99/9=1/99;
 Leave Link    1 at Thu Jan 30 14:32:18 2025, MaxMem=           0 cpu:               0.0 elap:               0.0
 (Enter /sw/cluster/pub/apps//g16/l101.exe)
 ----------
 benzene SP
 ----------
 Symbolic Z-matrix:
 Charge =  1 Multiplicity = 2
 C                    -0.69534   1.20431   0. 
 C                     0.69534   1.20431   0. 
 C                     1.39071   0.        0. 
 C                     0.69534  -1.20431   0. 
 C                    -0.69534  -1.20431   0. 
 C                    -1.39071  0.         0. 
 H                    -1.23796   2.14423   0. 
 H                     1.23796   2.14424   0. 
 H                     2.47601   0.        0. 
 H                     1.23796  -2.14423   0. 
 H                    -1.23796  -2.14424   0. 
 H                    -2.47601  0.         0. 
 
 ITRead=  0  0  0  0  0  0  0  0  0  0  0  0
 MicOpt= -1 -1 -1 -1 -1 -1 -1 -1 -1 -1 -1 -1
 NAtoms=     12 NQM=       12 NQMF=       0 NMMI=      0 NMMIF=      0
                NMic=       0 NMicF=      0.
                    Isotopes and Nuclear Properties:
 (Nuclear quadrupole moments (NQMom) in fm**2, nuclear magnetic moments (NMagM)
  in nuclear magnetons)

  Atom         1           2           3           4           5           6           7           8           9          10
 IAtWgt=          12          12          12          12          12          12           1           1           1           1
 AtmWgt=  12.0000000  12.0000000  12.0000000  12.0000000  12.0000000  12.0000000   1.0078250   1.0078250   1.0078250   1.0078250
 NucSpn=           0           0           0           0           0           0           1           1           1           1
 AtZEff=  -0.0000000  -0.0000000  -0.0000000  -0.0000000  -0.0000000  -0.0000000  -0.0000000  -0.0000000  -0.0000000  -0.0000000
 NQMom=    0.0000000   0.0000000   0.0000000   0.0000000   0.0000000   0.0000000   0.0000000   0.0000000   0.0000000   0.0000000
 NMagM=    0.0000000   0.0000000   0.0000000   0.0000000   0.0000000   0.0000000   2.7928460   2.7928460   2.7928460   2.7928460
 AtZNuc=   6.0000000   6.0000000   6.0000000   6.0000000   6.0000000   6.0000000   1.0000000   1.0000000   1.0000000   1.0000000

  Atom        11          12
 IAtWgt=           1           1
 AtmWgt=   1.0078250   1.0078250
 NucSpn=           1           1
 AtZEff=  -0.0000000  -0.0000000
 NQMom=    0.0000000   0.0000000
 NMagM=    2.7928460   2.7928460
 AtZNuc=   1.0000000   1.0000000
 Leave Link  101 at Thu Jan 30 14:32:18 2025, MaxMem=   104857600 cpu:               0.0 elap:               0.0
 (Enter /sw/cluster/pub/apps//g16/l103.exe)

 GradGradGradGradGradGradGradGradGradGradGradGradGradGradGradGradGradGrad
 Berny optimization.
 Initialization pass.
                           ----------------------------
                           !    Initial Parameters    !
                           ! (Angstroms and Degrees)  !
 --------------------------                            --------------------------
 ! Name  Definition              Value          Derivative Info.                !
 --------------------------------------------------------------------------------
 ! R1    R(1,2)                  1.3907         estimate D2E/DX2                !
 ! R2    R(1,6)                  1.3906         estimate D2E/DX2                !
 ! R3    R(1,7)                  1.0853         estimate D2E/DX2                !
 ! R4    R(2,3)                  1.3906         estimate D2E/DX2                !
 ! R5    R(2,8)                  1.0853         estimate D2E/DX2                !
 ! R6    R(3,4)                  1.3906         estimate D2E/DX2                !
 ! R7    R(3,9)                  1.0853         estimate D2E/DX2                !
 ! R8    R(4,5)                  1.3907         estimate D2E/DX2                !
 ! R9    R(4,10)                 1.0853         estimate D2E/DX2                !
 ! R10   R(5,6)                  1.3906         estimate D2E/DX2                !
 ! R11   R(5,11)                 1.0853         estimate D2E/DX2                !
 ! R12   R(6,12)                 1.0853         estimate D2E/DX2                !
 ! A1    A(2,1,6)              120.0022         estimate D2E/DX2                !
 ! A2    A(2,1,7)              119.9976         estimate D2E/DX2                !
 ! A3    A(6,1,7)              120.0002         estimate D2E/DX2                !
 ! A4    A(1,2,3)              120.0022         estimate D2E/DX2                !
 ! A5    A(1,2,8)              119.9976         estimate D2E/DX2                !
 ! A6    A(3,2,8)              120.0002         estimate D2E/DX2                !
 ! A7    A(2,3,4)              119.9956         estimate D2E/DX2                !
 ! A8    A(2,3,9)              120.0022         estimate D2E/DX2                !
 ! A9    A(4,3,9)              120.0022         estimate D2E/DX2                !
 ! A10   A(3,4,5)              120.0022         estimate D2E/DX2                !
 ! A11   A(3,4,10)             120.0002         estimate D2E/DX2                !
 ! A12   A(5,4,10)             119.9976         estimate D2E/DX2                !
 ! A13   A(4,5,6)              120.0022         estimate D2E/DX2                !
 ! A14   A(4,5,11)             119.9976         estimate D2E/DX2                !
 ! A15   A(6,5,11)             120.0002         estimate D2E/DX2                !
 ! A16   A(1,6,5)              119.9956         estimate D2E/DX2                !
 ! A17   A(1,6,12)             120.0022         estimate D2E/DX2                !
 ! A18   A(5,6,12)             120.0022         estimate D2E/DX2                !
 ! D1    D(6,1,2,3)              0.0            estimate D2E/DX2                !
 ! D2    D(6,1,2,8)            180.0            estimate D2E/DX2                !
 ! D3    D(7,1,2,3)            180.0            estimate D2E/DX2                !
 ! D4    D(7,1,2,8)              0.0            estimate D2E/DX2                !
 ! D5    D(2,1,6,5)              0.0            estimate D2E/DX2                !
 ! D6    D(2,1,6,12)           180.0            estimate D2E/DX2                !
 ! D7    D(7,1,6,5)            180.0            estimate D2E/DX2                !
 ! D8    D(7,1,6,12)             0.0            estimate D2E/DX2                !
 ! D9    D(1,2,3,4)              0.0            estimate D2E/DX2                !
 ! D10   D(1,2,3,9)            180.0            estimate D2E/DX2                !
 ! D11   D(8,2,3,4)            180.0            estimate D2E/DX2                !
 ! D12   D(8,2,3,9)              0.0            estimate D2E/DX2                !
 ! D13   D(2,3,4,5)              0.0            estimate D2E/DX2                !
 ! D14   D(2,3,4,10)           180.0            estimate D2E/DX2                !
 ! D15   D(9,3,4,5)            180.0            estimate D2E/DX2                !
 ! D16   D(9,3,4,10)             0.0            estimate D2E/DX2                !
 ! D17   D(3,4,5,6)              0.0            estimate D2E/DX2                !
 ! D18   D(3,4,5,11)           180.0            estimate D2E/DX2                !
 ! D19   D(10,4,5,6)           180.0            estimate D2E/DX2                !
 ! D20   D(10,4,5,11)            0.0            estimate D2E/DX2                !
 ! D21   D(4,5,6,1)              0.0            estimate D2E/DX2                !
 ! D22   D(4,5,6,12)           180.0            estimate D2E/DX2                !
 ! D23   D(11,5,6,1)           180.0            estimate D2E/DX2                !
 ! D24   D(11,5,6,12)            0.0            estimate D2E/DX2                !
 --------------------------------------------------------------------------------
 Trust Radius=3.00D-01 FncErr=1.00D-07 GrdErr=1.00D-06 EigMax=2.50D+02 EigMin=1.00D-04
 Number of steps in this run=     64 maximum allowed number of steps=    100.
 GradGradGradGradGradGradGradGradGradGradGradGradGradGradGradGradGradGrad

 Leave Link  103 at Thu Jan 30 14:32:18 2025, MaxMem=   104857600 cpu:               0.0 elap:               0.0
 (Enter /sw/cluster/pub/apps//g16/l202.exe)
                          Input orientation:                          
 ---------------------------------------------------------------------
 Center     Atomic      Atomic             Coordinates (Angstroms)
 Number     Number       Type             X           Y           Z
 ---------------------------------------------------------------------
      1          6           0       -0.695342    1.204305    0.000000
      2          6           0        0.695340    1.204306    0.000000
      3          6           0        1.390708    0.000001    0.000000
      4          6           0        0.695342   -1.204305    0.000000
      5          6           0       -0.695341   -1.204306    0.000000
      6          6           0       -1.390709   -0.000001    0.000000
      7          1           0       -1.237959    2.144233    0.000000
      8          1           0        1.237956    2.144235    0.000000
      9          1           0        2.476011    0.000001    0.000000
     10          1           0        1.237959   -2.144234    0.000000
     11          1           0       -1.237956   -2.144235    0.000000
     12          1           0       -2.476012   -0.000002    0.000000
 ---------------------------------------------------------------------
                    Distance matrix (angstroms):
                    1          2          3          4          5
     1  C    0.000000
     2  C    1.390682   0.000000
     3  C    2.408725   1.390643   0.000000
     4  C    2.781260   2.408611   1.390643   0.000000
     5  C    2.408611   2.781260   2.408725   1.390683   0.000000
     6  C    1.390643   2.408725   2.781417   2.408725   1.390643
     7  H    1.085310   2.149676   3.392289   3.866570   3.392219
     8  H    2.149676   1.085310   2.149668   3.392219   3.866570
     9  H    3.392319   2.149684   1.085303   2.149683   3.392319
    10  H    3.866570   3.392219   2.149668   1.085310   2.149676
    11  H    3.392220   3.866570   3.392289   2.149676   1.085310
    12  H    2.149684   3.392319   3.866720   3.392319   2.149683
                    6          7          8          9         10
     6  C    0.000000
     7  H    2.149668   0.000000
     8  H    3.392289   2.475914   0.000000
     9  H    3.866720   4.288508   2.475989   0.000000
    10  H    3.392289   4.951880   4.288469   2.475988   0.000000
    11  H    2.149668   4.288469   4.951880   4.288508   2.475914
    12  H    1.085303   2.475989   4.288508   4.952023   4.288508
                   11         12
    11  H    0.000000
    12  H    2.475989   0.000000
 Symmetry turned off by external request.
 Stoichiometry    C6H6(1+,2)
 Framework group  C2H[SGH(C6H6)]
 Deg. of freedom    11
 Full point group                 C2H     NOp   4
 Rotational constants (GHZ):           5.7330547           5.7324559           2.8663776
 Leave Link  202 at Thu Jan 30 14:32:18 2025, MaxMem=   104857600 cpu:               0.0 elap:               0.0
 (Enter /sw/cluster/pub/apps//g16/l301.exe)
 Standard basis: 6-311++G(d,p) (5D, 7F)
 Ernie: Thresh=  0.10000D-02 Tol=  0.10000D-05 Strict=F.
   174 basis functions,   270 primitive gaussians,   180 cartesian basis functions
    21 alpha electrons       20 beta electrons
       nuclear repulsion energy       203.9742416542 Hartrees.
 IExCor= 1009 DFT=T Ex+Corr=PBE1PBE ExCW=0 ScaHFX=  0.250000
 ScaDFX=  0.750000  0.750000  1.000000  1.000000 ScalE2=  1.000000  1.000000
 IRadAn=      5 IRanWt=     -1 IRanGd=            0 ICorTp=0 IEmpDi=  4
 NAtoms=   12 NActive=   12 NUniq=   12 SFac= 1.00D+00 NAtFMM=   60 NAOKFM=F Big=F
 Integral buffers will be    131072 words long.
 Raffenetti 2 integral format.
 Two-electron integral symmetry is turned off.
 Leave Link  301 at Thu Jan 30 14:32:18 2025, MaxMem=   104857600 cpu:               0.0 elap:               0.0
 (Enter /sw/cluster/pub/apps//g16/l302.exe)
 NPDir=0 NMtPBC=     1 NCelOv=     1 NCel=       1 NClECP=     1 NCelD=      1
         NCelK=      1 NCelE2=     1 NClLst=     1 CellRange=     0.0.
 One-electron integrals computed using PRISM.
 NBasis=   174 RedAO= T EigKep=  1.04D-06  NBF=   174
 NBsUse=   174 1.00D-06 EigRej= -1.00D+00 NBFU=   174
 Precomputing XC quadrature grid using
 IXCGrd= 4 IRadAn=           5 IRanWt=          -1 IRanGd=           0 AccXCQ= 0.00D+00.
 Generated NRdTot=       0 NPtTot=           0 NUsed=           0 NTot=          32
 NSgBfM=   180   180   180   180   180 MxSgAt=    12 MxSgA2=    12.
 Leave Link  302 at Thu Jan 30 14:32:18 2025, MaxMem=   104857600 cpu:               0.1 elap:               0.1
 (Enter /sw/cluster/pub/apps//g16/l303.exe)
 DipDrv:  MaxL=1.
 Leave Link  303 at Thu Jan 30 14:32:18 2025, MaxMem=   104857600 cpu:               0.0 elap:               0.0
 (Enter /sw/cluster/pub/apps//g16/l401.exe)
 ExpMin= 3.60D-02 ExpMax= 4.56D+03 ExpMxC= 6.82D+02 IAcc=3 IRadAn=         5 AccDes= 0.00D+00
 Harris functional with IExCor= 1009 and IRadAn=       5 diagonalized for initial guess.
 HarFok:  IExCor= 1009 AccDes= 0.00D+00 IRadAn=         5 IDoV= 1 UseB2=F ITyADJ=14
 ICtDFT=  3500011 ScaDFX=  1.000000  1.000000  1.000000  1.000000
 FoFCou: FMM=F IPFlag=           0 FMFlag=      100000 FMFlg1=           0
         NFxFlg=           0 DoJE=T BraDBF=F KetDBF=T FulRan=T
         wScrn=  0.000000 ICntrl=       500 IOpCl=  0 I1Cent=   200000004 NGrid=           0
         NMat0=    1 NMatS0=      1 NMatT0=    0 NMatD0=    1 NMtDS0=    0 NMtDT0=    0
 Symmetry not used in FoFCou.
 Harris En= -231.765766205519    
 JPrj=0 DoOrth=F DoCkMO=F.
 Initial guess <Sx>= 0.0000 <Sy>= 0.0000 <Sz>= 0.5000 <S**2>= 0.7500 S= 0.5000
 Leave Link  401 at Thu Jan 30 14:32:20 2025, MaxMem=   104857600 cpu:               1.1 elap:               1.1
 (Enter /sw/cluster/pub/apps//g16/l502.exe)
 Two-electron integral symmetry not used.
 UHF open shell SCF:
 Using DIIS extrapolation, IDIIS=  1040.
 NGot=   104857600 LenX=   104790300 LenY=   104757459
 Requested convergence on RMS density matrix=1.00D-08 within 128 cycles.
 Requested convergence on MAX density matrix=1.00D-06.
 Requested convergence on             energy=1.00D-06.
 No special actions if energy rises.
 Fock matrices will be formed incrementally for  20 cycles.

 Cycle   1  Pass 1  IDiag  1:
 FoFJK:  IHMeth= 1 ICntrl=       0 DoSepK=F KAlg= 0 I1Cent=           0 FoldK=F
 IRaf= 990000000 NMat=       1 IRICut=       1 DoRegI=T DoRafI=F ISym2E= 0 IDoP0=0 IntGTp=1.
 FoFCou: FMM=F IPFlag=           0 FMFlag=      100000 FMFlg1=           0
         NFxFlg=           0 DoJE=F BraDBF=F KetDBF=F FulRan=T
         wScrn=  0.000000 ICntrl=         0 IOpCl=  1 I1Cent=           0 NGrid=           0
         NMat0=    1 NMatS0=      1 NMatT0=    0 NMatD0=    1 NMtDS0=    0 NMtDT0=    0
 Symmetry not used in FoFCou.
 E= -231.611560593375    
 DIIS: error= 3.73D-02 at cycle   1 NSaved=   1.
 NSaved= 1 IEnMin= 1 EnMin= -231.611560593375     IErMin= 1 ErrMin= 3.73D-02
 ErrMax= 3.73D-02  0.00D+00 EMaxC= 1.00D-01 BMatC= 3.21D-01 BMatP= 3.21D-01
 IDIUse=3 WtCom= 6.27D-01 WtEn= 3.73D-01
 Coeff-Com:  0.100D+01
 Coeff-En:   0.100D+01
 Coeff:      0.100D+01
 Gap=     0.276 Goal=   None    Shift=    0.000
 Gap=     0.042 Goal=   None    Shift=    0.000
 GapD=    0.042 DampG=0.250 DampE=0.500 DampFc=0.2500 IDamp=-1.
 Damping current iteration by 2.50D-01
 RMSDP=6.70D-03 MaxDP=1.91D-01              OVMax= 1.10D-01

 Cycle   2  Pass 1  IDiag  1:
 RMSU=  1.47D-03    CP:  1.04D+00
 E= -231.633477229015     Delta-E=       -0.021916635639 Rises=F Damp=T
 DIIS: error= 2.24D-02 at cycle   2 NSaved=   2.
 NSaved= 2 IEnMin= 2 EnMin= -231.633477229015     IErMin= 2 ErrMin= 2.24D-02
 ErrMax= 2.24D-02  0.00D+00 EMaxC= 1.00D-01 BMatC= 1.25D-01 BMatP= 3.21D-01
 IDIUse=3 WtCom= 7.76D-01 WtEn= 2.24D-01
 Coeff-Com: -0.137D+01 0.237D+01
 Coeff-En:   0.000D+00 0.100D+01
 Coeff:     -0.106D+01 0.206D+01
 Gap=     0.248 Goal=   None    Shift=    0.000
 Gap=     0.069 Goal=   None    Shift=    0.000
 RMSDP=6.92D-03 MaxDP=2.05D-01 DE=-2.19D-02 OVMax= 5.68D-02

 Cycle   3  Pass 1  IDiag  1:
 RMSU=  3.30D-03    CP:  1.24D+00  3.00D+00
 E= -231.677221188662     Delta-E=       -0.043743959647 Rises=F Damp=F
 DIIS: error= 4.29D-03 at cycle   3 NSaved=   3.
 NSaved= 3 IEnMin= 3 EnMin= -231.677221188662     IErMin= 3 ErrMin= 4.29D-03
 ErrMax= 4.29D-03  0.00D+00 EMaxC= 1.00D-01 BMatC= 3.51D-03 BMatP= 1.25D-01
 IDIUse=3 WtCom= 9.57D-01 WtEn= 4.29D-02
 Coeff-Com: -0.336D+00 0.542D+00 0.793D+00
 Coeff-En:   0.000D+00 0.000D+00 0.100D+01
 Coeff:     -0.321D+00 0.519D+00 0.802D+00
 Gap=     0.239 Goal=   None    Shift=    0.000
 Gap=     0.067 Goal=   None    Shift=    0.000
 RMSDP=5.49D-04 MaxDP=1.60D-02 DE=-4.37D-02 OVMax= 1.83D-02

 Cycle   4  Pass 1  IDiag  1:
 RMSU=  4.05D-04    CP:  1.25D+00  3.00D+00  1.10D+00
 E= -231.677983825387     Delta-E=       -0.000762636725 Rises=F Damp=F
 DIIS: error= 2.33D-03 at cycle   4 NSaved=   4.
 NSaved= 4 IEnMin= 4 EnMin= -231.677983825387     IErMin= 4 ErrMin= 2.33D-03
 ErrMax= 2.33D-03  0.00D+00 EMaxC= 1.00D-01 BMatC= 8.46D-04 BMatP= 3.51D-03
 IDIUse=3 WtCom= 9.77D-01 WtEn= 2.33D-02
 Coeff-Com: -0.601D-01 0.882D-01 0.332D+00 0.640D+00
 Coeff-En:   0.000D+00 0.000D+00 0.000D+00 0.100D+01
 Coeff:     -0.587D-01 0.862D-01 0.324D+00 0.648D+00
 Gap=     0.241 Goal=   None    Shift=    0.000
 Gap=     0.072 Goal=   None    Shift=    0.000
 RMSDP=1.72D-04 MaxDP=5.78D-03 DE=-7.63D-04 OVMax= 9.51D-03

 Cycle   5  Pass 1  IDiag  1:
 RMSU=  1.49D-04    CP:  1.25D+00  3.00D+00  1.08D+00  9.86D-01
 E= -231.678205033499     Delta-E=       -0.000221208112 Rises=F Damp=F
 DIIS: error= 9.82D-04 at cycle   5 NSaved=   5.
 NSaved= 5 IEnMin= 5 EnMin= -231.678205033499     IErMin= 5 ErrMin= 9.82D-04
 ErrMax= 9.82D-04  0.00D+00 EMaxC= 1.00D-01 BMatC= 1.17D-04 BMatP= 8.46D-04
 IDIUse=3 WtCom= 9.90D-01 WtEn= 9.82D-03
 Coeff-Com:  0.706D-02-0.154D-01 0.527D-01 0.280D+00 0.676D+00
 Coeff-En:   0.000D+00 0.000D+00 0.000D+00 0.000D+00 0.100D+01
 Coeff:      0.699D-02-0.152D-01 0.522D-01 0.277D+00 0.679D+00
 Gap=     0.239 Goal=   None    Shift=    0.000
 Gap=     0.072 Goal=   None    Shift=    0.000
 RMSDP=7.17D-05 MaxDP=2.48D-03 DE=-2.21D-04 OVMax= 3.49D-03

 Cycle   6  Pass 1  IDiag  1:
 RMSU=  5.18D-05    CP:  1.25D+00  3.00D+00  1.09D+00  1.07D+00  1.13D+00
 E= -231.678248880389     Delta-E=       -0.000043846891 Rises=F Damp=F
 DIIS: error= 3.18D-04 at cycle   6 NSaved=   6.
 NSaved= 6 IEnMin= 6 EnMin= -231.678248880389     IErMin= 6 ErrMin= 3.18D-04
 ErrMax= 3.18D-04  0.00D+00 EMaxC= 1.00D-01 BMatC= 9.06D-06 BMatP= 1.17D-04
 IDIUse=3 WtCom= 9.97D-01 WtEn= 3.18D-03
 Coeff-Com:  0.142D-01-0.200D-01-0.860D-01-0.199D+00-0.149D+00 0.144D+01
 Coeff-En:   0.000D+00 0.000D+00 0.000D+00 0.000D+00 0.000D+00 0.100D+01
 Coeff:      0.141D-01-0.199D-01-0.857D-01-0.199D+00-0.149D+00 0.144D+01
 Gap=     0.238 Goal=   None    Shift=    0.000
 Gap=     0.073 Goal=   None    Shift=    0.000
 RMSDP=8.27D-05 MaxDP=3.00D-03 DE=-4.38D-05 OVMax= 3.43D-03

 Cycle   7  Pass 1  IDiag  1:
 RMSU=  1.66D-05    CP:  1.25D+00  3.00D+00  1.10D+00  1.17D+00  1.43D+00
                    CP:  1.58D+00
 E= -231.678260393736     Delta-E=       -0.000011513347 Rises=F Damp=F
 DIIS: error= 2.70D-05 at cycle   7 NSaved=   7.
 NSaved= 7 IEnMin= 7 EnMin= -231.678260393736     IErMin= 7 ErrMin= 2.70D-05
 ErrMax= 2.70D-05  0.00D+00 EMaxC= 1.00D-01 BMatC= 1.27D-07 BMatP= 9.06D-06
 IDIUse=1 WtCom= 1.00D+00 WtEn= 0.00D+00
 Coeff-Com: -0.173D-02 0.260D-02 0.781D-03-0.261D-02-0.151D-01-0.667D-01
 Coeff-Com:  0.108D+01
 Coeff:     -0.173D-02 0.260D-02 0.781D-03-0.261D-02-0.151D-01-0.667D-01
 Coeff:      0.108D+01
 Gap=     0.238 Goal=   None    Shift=    0.000
 Gap=     0.073 Goal=   None    Shift=    0.000
 RMSDP=8.28D-06 MaxDP=2.67D-04 DE=-1.15D-05 OVMax= 2.62D-04

 Cycle   8  Pass 1  IDiag  1:
 RMSU=  2.67D-06    CP:  1.25D+00  3.00D+00  1.10D+00  1.17D+00  1.45D+00
                    CP:  1.64D+00  1.25D+00
 E= -231.678260498838     Delta-E=       -0.000000105102 Rises=F Damp=F
 DIIS: error= 3.84D-06 at cycle   8 NSaved=   8.
 NSaved= 8 IEnMin= 8 EnMin= -231.678260498838     IErMin= 8 ErrMin= 3.84D-06
 ErrMax= 3.84D-06  0.00D+00 EMaxC= 1.00D-01 BMatC= 5.10D-09 BMatP= 1.27D-07
 IDIUse=1 WtCom= 1.00D+00 WtEn= 0.00D+00
 Coeff-Com:  0.522D-04-0.862D-04 0.230D-02 0.588D-02 0.750D-02-0.249D-01
 Coeff-Com: -0.217D+00 0.123D+01
 Coeff:      0.522D-04-0.862D-04 0.230D-02 0.588D-02 0.750D-02-0.249D-01
 Coeff:     -0.217D+00 0.123D+01
 Gap=     0.238 Goal=   None    Shift=    0.000
 Gap=     0.073 Goal=   None    Shift=    0.000
 RMSDP=2.11D-06 MaxDP=7.15D-05 DE=-1.05D-07 OVMax= 2.53D-05

 Cycle   9  Pass 1  IDiag  1:
 RMSU=  5.94D-07    CP:  1.25D+00  3.00D+00  1.10D+00  1.17D+00  1.44D+00
                    CP:  1.63D+00  1.33D+00  1.36D+00
 E= -231.678260502419     Delta-E=       -0.000000003581 Rises=F Damp=F
 DIIS: error= 8.00D-07 at cycle   9 NSaved=   9.
 NSaved= 9 IEnMin= 9 EnMin= -231.678260502419     IErMin= 9 ErrMin= 8.00D-07
 ErrMax= 8.00D-07  0.00D+00 EMaxC= 1.00D-01 BMatC= 3.27D-10 BMatP= 5.10D-09
 IDIUse=1 WtCom= 1.00D+00 WtEn= 0.00D+00
 Coeff-Com:  0.402D-04-0.628D-04 0.334D-04 0.211D-03 0.552D-03 0.162D-02
 Coeff-Com: -0.343D-01-0.175D-01 0.105D+01
 Coeff:      0.402D-04-0.628D-04 0.334D-04 0.211D-03 0.552D-03 0.162D-02
 Coeff:     -0.343D-01-0.175D-01 0.105D+01
 Gap=     0.238 Goal=   None    Shift=    0.000
 Gap=     0.073 Goal=   None    Shift=    0.000
 RMSDP=3.30D-07 MaxDP=1.07D-05 DE=-3.58D-09 OVMax= 1.41D-05

 Cycle  10  Pass 1  IDiag  1:
 RMSU=  1.19D-07    CP:  1.25D+00  3.00D+00  1.10D+00  1.17D+00  1.44D+00
                    CP:  1.63D+00  1.34D+00  1.43D+00  1.16D+00
 E= -231.678260502502     Delta-E=       -0.000000000083 Rises=F Damp=F
 DIIS: error= 1.30D-06 at cycle  10 NSaved=  10.
 NSaved=10 IEnMin=10 EnMin= -231.678260502502     IErMin= 9 ErrMin= 8.00D-07
 ErrMax= 1.30D-06  0.00D+00 EMaxC= 1.00D-01 BMatC= 4.10D-10 BMatP= 3.27D-10
 IDIUse=1 WtCom= 1.00D+00 WtEn= 0.00D+00
 Coeff-Com:  0.175D-04-0.272D-04-0.254D-03-0.566D-03-0.555D-03 0.396D-02
 Coeff-Com:  0.495D-02-0.160D+00 0.665D+00 0.488D+00
 Coeff:      0.175D-04-0.272D-04-0.254D-03-0.566D-03-0.555D-03 0.396D-02
 Coeff:      0.495D-02-0.160D+00 0.665D+00 0.488D+00
 Gap=     0.238 Goal=   None    Shift=    0.000
 Gap=     0.073 Goal=   None    Shift=    0.000
 RMSDP=8.45D-08 MaxDP=2.37D-06 DE=-8.26D-11 OVMax= 6.89D-06

 Cycle  11  Pass 1  IDiag  1:
 RMSU=  4.56D-08    CP:  1.25D+00  3.00D+00  1.10D+00  1.17D+00  1.44D+00
                    CP:  1.63D+00  1.34D+00  1.44D+00  1.21D+00  6.58D-01
 E= -231.678260502602     Delta-E=       -0.000000000100 Rises=F Damp=F
 DIIS: error= 1.55D-07 at cycle  11 NSaved=  11.
 NSaved=11 IEnMin=11 EnMin= -231.678260502602     IErMin=11 ErrMin= 1.55D-07
 ErrMax= 1.55D-07  0.00D+00 EMaxC= 1.00D-01 BMatC= 4.10D-12 BMatP= 3.27D-10
 IDIUse=1 WtCom= 1.00D+00 WtEn= 0.00D+00
 Coeff-Com:  0.804D-06-0.127D-05-0.450D-04-0.101D-03-0.121D-03 0.514D-03
 Coeff-Com:  0.291D-02-0.232D-01 0.316D-01 0.599D-01 0.929D+00
 Coeff:      0.804D-06-0.127D-05-0.450D-04-0.101D-03-0.121D-03 0.514D-03
 Coeff:      0.291D-02-0.232D-01 0.316D-01 0.599D-01 0.929D+00
 Gap=     0.238 Goal=   None    Shift=    0.000
 Gap=     0.073 Goal=   None    Shift=    0.000
 RMSDP=2.33D-08 MaxDP=4.19D-07 DE=-9.99D-11 OVMax= 1.69D-06

 Cycle  12  Pass 1  IDiag  1:
 RMSU=  1.83D-08    CP:  1.25D+00  3.00D+00  1.10D+00  1.17D+00  1.44D+00
                    CP:  1.63D+00  1.34D+00  1.45D+00  1.21D+00  7.17D-01
                    CP:  1.03D+00
 E= -231.678260502602     Delta-E=       -0.000000000000 Rises=F Damp=F
 DIIS: error= 2.76D-07 at cycle  12 NSaved=  12.
 NSaved=12 IEnMin=12 EnMin= -231.678260502602     IErMin=11 ErrMin= 1.55D-07
 ErrMax= 2.76D-07  0.00D+00 EMaxC= 1.00D-01 BMatC= 8.79D-12 BMatP= 4.10D-12
 IDIUse=1 WtCom= 1.00D+00 WtEn= 0.00D+00
 Coeff-Com: -0.211D-05 0.328D-05 0.726D-05 0.163D-04-0.707D-06-0.256D-03
 Coeff-Com:  0.133D-02 0.883D-02-0.834D-01-0.418D-01 0.697D+00 0.418D+00
 Coeff:     -0.211D-05 0.328D-05 0.726D-05 0.163D-04-0.707D-06-0.256D-03
 Coeff:      0.133D-02 0.883D-02-0.834D-01-0.418D-01 0.697D+00 0.418D+00
 Gap=     0.238 Goal=   None    Shift=    0.000
 Gap=     0.073 Goal=   None    Shift=    0.000
 RMSDP=1.24D-08 MaxDP=2.39D-07 DE=-1.71D-13 OVMax= 1.18D-06

 Cycle  13  Pass 1  IDiag  1:
 RMSU=  6.78D-09    CP:  1.25D+00  3.00D+00  1.10D+00  1.17D+00  1.44D+00
                    CP:  1.63D+00  1.34D+00  1.45D+00  1.22D+00  7.14D-01
                    CP:  1.13D+00  5.29D-01
 E= -231.678260502605     Delta-E=       -0.000000000003 Rises=F Damp=F
 DIIS: error= 4.68D-08 at cycle  13 NSaved=  13.
 NSaved=13 IEnMin=13 EnMin= -231.678260502605     IErMin=13 ErrMin= 4.68D-08
 ErrMax= 4.68D-08  0.00D+00 EMaxC= 1.00D-01 BMatC= 2.86D-13 BMatP= 4.10D-12
 IDIUse=1 WtCom= 1.00D+00 WtEn= 0.00D+00
 Coeff-Com: -0.191D-06 0.330D-06 0.439D-05 0.928D-05 0.888D-05-0.643D-04
 Coeff-Com: -0.156D-03 0.291D-02-0.824D-02-0.263D-01-0.314D-03 0.737D-01
 Coeff-Com:  0.958D+00
 Coeff:     -0.191D-06 0.330D-06 0.439D-05 0.928D-05 0.888D-05-0.643D-04
 Coeff:     -0.156D-03 0.291D-02-0.824D-02-0.263D-01-0.314D-03 0.737D-01
 Coeff:      0.958D+00
 Gap=     0.238 Goal=   None    Shift=    0.000
 Gap=     0.073 Goal=   None    Shift=    0.000
 RMSDP=5.98D-09 MaxDP=1.13D-07 DE=-2.79D-12 OVMax= 1.47D-06

 SCF Done:  E(UPBE1PBE) =  -231.678260503     A.U. after   13 cycles
            NFock= 13  Conv=0.60D-08     -V/T= 2.0032
 <Sx>= 0.0000 <Sy>= 0.0000 <Sz>= 0.5000 <S**2>= 0.7711 S= 0.5105
 <L.S>=  0.00000000000    
 KE= 2.309293560537D+02 PE=-9.363128043363D+02 EE= 2.697309461258D+02
 Annihilation of the first spin contaminant:
 S**2 before annihilation     0.7711,   after     0.7503
 Leave Link  502 at Thu Jan 30 14:32:57 2025, MaxMem=   104857600 cpu:              36.5 elap:              36.6
 (Enter /sw/cluster/pub/apps//g16/l601.exe)
 Copying SCF densities to generalized density rwf, IOpCl= 1 IROHF=0.

 **********************************************************************

            Population analysis using the SCF density.

 **********************************************************************

 Alpha  occ. eigenvalues --  -10.48205 -10.48203 -10.48143 -10.48141 -10.44594
 Alpha  occ. eigenvalues --  -10.44592  -1.13148  -1.02571  -1.00045  -0.85720
 Alpha  occ. eigenvalues --   -0.85681  -0.76777  -0.70368  -0.69506  -0.67098
 Alpha  occ. eigenvalues --   -0.65252  -0.63194  -0.58300  -0.58075  -0.52968
 Alpha  occ. eigenvalues --   -0.49346
 Alpha virt. eigenvalues --   -0.25514  -0.22842  -0.14114  -0.11246  -0.10710
 Alpha virt. eigenvalues --   -0.09684  -0.08608  -0.08440  -0.08168  -0.07735
 Alpha virt. eigenvalues --   -0.04714  -0.04450  -0.04114  -0.03287  -0.01304
 Alpha virt. eigenvalues --   -0.01255  -0.00562  -0.00180  -0.00177   0.00509
 Alpha virt. eigenvalues --    0.00937   0.01070   0.01338   0.03404   0.03762
 Alpha virt. eigenvalues --    0.03823   0.05813   0.05854   0.06876   0.08297
 Alpha virt. eigenvalues --    0.08340   0.08696   0.11552   0.11908   0.13232
 Alpha virt. eigenvalues --    0.13238   0.15510   0.16524   0.18515   0.20444
 Alpha virt. eigenvalues --    0.20725   0.20790   0.21363   0.27315   0.30944
 Alpha virt. eigenvalues --    0.33442   0.35765   0.35829   0.36432   0.37603
 Alpha virt. eigenvalues --    0.37741   0.38558   0.38652   0.39404   0.39767
 Alpha virt. eigenvalues --    0.42614   0.44072   0.49426   0.54093   0.54718
 Alpha virt. eigenvalues --    0.55620   0.55852   0.59753   0.62728   0.65088
 Alpha virt. eigenvalues --    0.65876   0.69298   0.70198   0.70296   0.70403
 Alpha virt. eigenvalues --    0.70989   0.71570   0.71587   0.77024   0.82498
 Alpha virt. eigenvalues --    0.82616   0.84631   0.86719   0.91133   0.91704
 Alpha virt. eigenvalues --    1.08379   1.14078   1.24868   1.30272   1.30752
 Alpha virt. eigenvalues --    1.31515   1.35853   1.35932   1.37112   1.44015
 Alpha virt. eigenvalues --    1.44465   1.45114   1.46096   1.51377   1.55972
 Alpha virt. eigenvalues --    1.57680   1.62351   1.62726   1.65485   1.69270
 Alpha virt. eigenvalues --    1.70756   1.73997   1.74278   1.77516   1.79785
 Alpha virt. eigenvalues --    1.81261   1.81918   1.85587   1.87341   2.10962
 Alpha virt. eigenvalues --    2.11819   2.20919   2.21770   2.22679   2.26724
 Alpha virt. eigenvalues --    2.28038   2.41776   2.42709   2.44717   2.47349
 Alpha virt. eigenvalues --    2.50439   2.53310   2.54323   2.56329   2.57491
 Alpha virt. eigenvalues --    2.57581   2.59922   2.60688   2.66707   2.69797
 Alpha virt. eigenvalues --    2.71416   2.75199   2.76184   2.86989   2.91673
 Alpha virt. eigenvalues --    3.14305   3.15777   3.28482   3.29659   3.30938
 Alpha virt. eigenvalues --    3.48871   3.78848   3.80522   3.88521   3.94579
 Alpha virt. eigenvalues --    3.94968   4.63478  23.44765  23.83109  23.85226
 Alpha virt. eigenvalues --   23.95669  23.98060  24.08160
  Beta  occ. eigenvalues --  -10.47717 -10.47717 -10.47660 -10.47659 -10.44786
  Beta  occ. eigenvalues --  -10.44785  -1.11868  -1.00278  -0.99818  -0.85052
  Beta  occ. eigenvalues --   -0.84706  -0.76496  -0.69866  -0.69047  -0.66556
  Beta  occ. eigenvalues --   -0.65253  -0.59291  -0.58091  -0.57762  -0.48770
  Beta virt. eigenvalues --   -0.41434  -0.21420  -0.20981  -0.13970  -0.11094
  Beta virt. eigenvalues --   -0.10704  -0.09221  -0.08410  -0.08392  -0.07742
  Beta virt. eigenvalues --   -0.05457  -0.04349  -0.04070  -0.04018  -0.03236
  Beta virt. eigenvalues --   -0.01162  -0.00610  -0.00522  -0.00115   0.00066
  Beta virt. eigenvalues --    0.00785   0.00952   0.01526   0.01549   0.03517
  Beta virt. eigenvalues --    0.03781   0.04002   0.05963   0.06031   0.07254
  Beta virt. eigenvalues --    0.08546   0.08813   0.08825   0.12134   0.12391
  Beta virt. eigenvalues --    0.13326   0.13331   0.15786   0.16516   0.18924
  Beta virt. eigenvalues --    0.20791   0.20816   0.20938   0.21392   0.27528
  Beta virt. eigenvalues --    0.31108   0.34747   0.36028   0.36845   0.37584
  Beta virt. eigenvalues --    0.37640   0.39056   0.39356   0.39699   0.39921
  Beta virt. eigenvalues --    0.40085   0.44460   0.44495   0.50388   0.54535
  Beta virt. eigenvalues --    0.54805   0.55836   0.55944   0.60188   0.62973
  Beta virt. eigenvalues --    0.65928   0.65951   0.69535   0.71010   0.71108
  Beta virt. eigenvalues --    0.71136   0.71473   0.71635   0.72101   0.78809
  Beta virt. eigenvalues --    0.83112   0.83441   0.86483   0.86944   0.92523
  Beta virt. eigenvalues --    0.92772   1.09608   1.14758   1.25104   1.30880
  Beta virt. eigenvalues --    1.31524   1.31571   1.36756   1.36953   1.37571
  Beta virt. eigenvalues --    1.44197   1.45013   1.46254   1.46764   1.51866
  Beta virt. eigenvalues --    1.57050   1.57806   1.62816   1.62823   1.65516
  Beta virt. eigenvalues --    1.71456   1.71668   1.74566   1.74958   1.77548
  Beta virt. eigenvalues --    1.80416   1.82236   1.82302   1.87173   1.87693
  Beta virt. eigenvalues --    2.12076   2.13360   2.20920   2.22637   2.22897
  Beta virt. eigenvalues --    2.26834   2.28019   2.42134   2.42971   2.46465
  Beta virt. eigenvalues --    2.47989   2.50554   2.53531   2.54369   2.56492
  Beta virt. eigenvalues --    2.57508   2.60201   2.60632   2.60792   2.69668
  Beta virt. eigenvalues --    2.70112   2.71630   2.75561   2.76246   2.88647
  Beta virt. eigenvalues --    2.92076   3.14995   3.15929   3.29125   3.29854
  Beta virt. eigenvalues --    3.31366   3.49200   3.79820   3.80725   3.89240
  Beta virt. eigenvalues --    3.95494   3.95554   4.64568  23.45060  23.83639
  Beta virt. eigenvalues --   23.85348  23.96183  23.98096  24.08389
          Condensed to atoms (all electrons):
               1          2          3          4          5          6
     1  C    5.512571  -0.099059   0.374765  -0.358835   0.400524  -0.055215
     2  C   -0.099059   5.512598  -0.055201   0.400524  -0.358840   0.374760
     3  C    0.374765  -0.055201   5.594841  -0.055215   0.374761  -0.361506
     4  C   -0.358835   0.400524  -0.055215   5.512570  -0.099059   0.374765
     5  C    0.400524  -0.358840   0.374761  -0.099059   5.512598  -0.055201
     6  C   -0.055215   0.374760  -0.361506   0.374765  -0.055201   5.594841
     7  H    0.334621  -0.006897  -0.008174   0.011989  -0.010255  -0.003058
     8  H   -0.006896   0.334624  -0.003057  -0.010256   0.011990  -0.008175
     9  H   -0.010664  -0.004627   0.347707  -0.004628  -0.010663   0.012575
    10  H    0.011989  -0.010255  -0.003058   0.334621  -0.006897  -0.008174
    11  H   -0.010256   0.011990  -0.008175  -0.006896   0.334624  -0.003057
    12  H   -0.004628  -0.010663   0.012575  -0.010664  -0.004627   0.347707
               7          8          9         10         11         12
     1  C    0.334621  -0.006896  -0.010664   0.011989  -0.010256  -0.004628
     2  C   -0.006897   0.334624  -0.004627  -0.010255   0.011990  -0.010663
     3  C   -0.008174  -0.003057   0.347707  -0.003058  -0.008175   0.012575
     4  C    0.011989  -0.010256  -0.004628   0.334621  -0.006896  -0.010664
     5  C   -0.010255   0.011990  -0.010663  -0.006897   0.334624  -0.004627
     6  C   -0.003058  -0.008175   0.012575  -0.008174  -0.003057   0.347707
     7  H    0.374475   0.002650  -0.000295   0.000424  -0.000486   0.002844
     8  H    0.002650   0.374476   0.002844  -0.000486   0.000424  -0.000295
     9  H   -0.000295   0.002844   0.380814   0.002844  -0.000295   0.000568
    10  H    0.000424  -0.000486   0.002844   0.374475   0.002650  -0.000295
    11  H   -0.000486   0.000424  -0.000295   0.002650   0.374476   0.002844
    12  H    0.002844  -0.000295   0.000568  -0.000295   0.002844   0.380814
          Atomic-Atomic Spin Densities.
               1          2          3          4          5          6
     1  C    0.375571   0.004083   0.051196  -0.079397   0.057134  -0.048536
     2  C    0.004083   0.375424  -0.048552   0.057134  -0.079390   0.051193
     3  C    0.051196  -0.048552  -0.126825  -0.048536   0.051193  -0.065364
     4  C   -0.079397   0.057134  -0.048536   0.375571   0.004083   0.051196
     5  C    0.057134  -0.079390   0.051193   0.004083   0.375424  -0.048552
     6  C   -0.048536   0.051193  -0.065364   0.051196  -0.048552  -0.126825
     7  H   -0.005363   0.001806   0.003294  -0.001913  -0.000025   0.003559
     8  H    0.001804  -0.005361   0.003558  -0.000024  -0.001915   0.003296
     9  H    0.005875  -0.003155   0.002952  -0.003156   0.005876  -0.007597
    10  H   -0.001913  -0.000025   0.003559  -0.005363   0.001806   0.003294
    11  H   -0.000024  -0.001915   0.003296   0.001803  -0.005361   0.003558
    12  H   -0.003156   0.005876  -0.007597   0.005875  -0.003155   0.002952
               7          8          9         10         11         12
     1  C   -0.005363   0.001804   0.005875  -0.001913  -0.000024  -0.003156
     2  C    0.001806  -0.005361  -0.003155  -0.000025  -0.001915   0.005876
     3  C    0.003294   0.003558   0.002952   0.003559   0.003296  -0.007597
     4  C   -0.001913  -0.000024  -0.003156  -0.005363   0.001803   0.005875
     5  C   -0.000025  -0.001915   0.005876   0.001806  -0.005361  -0.003155
     6  C    0.003559   0.003296  -0.007597   0.003294   0.003558   0.002952
     7  H   -0.022812  -0.000159   0.000315  -0.000087  -0.000089   0.000672
     8  H   -0.000159  -0.022805   0.000673  -0.000089  -0.000087   0.000315
     9  H    0.000315   0.000673   0.002570   0.000672   0.000315  -0.000306
    10  H   -0.000087  -0.000089   0.000672  -0.022812  -0.000159   0.000315
    11  H   -0.000089  -0.000087   0.000315  -0.000159  -0.022805   0.000673
    12  H    0.000672   0.000315  -0.000306   0.000315   0.000673   0.002570
 Mulliken charges and spin densities:
               1          2
     1  C   -0.088917   0.357273
     2  C   -0.088955   0.357118
     3  C   -0.210262  -0.177826
     4  C   -0.088917   0.357273
     5  C   -0.088956   0.357118
     6  C   -0.210262  -0.177826
     7  H    0.302161  -0.020803
     8  H    0.302156  -0.020796
     9  H    0.283818   0.005034
    10  H    0.302161  -0.020803
    11  H    0.302156  -0.020796
    12  H    0.283818   0.005034
 Sum of Mulliken charges =   1.00000   1.00000
 Mulliken charges and spin densities with hydrogens summed into heavy atoms:
               1          2
     1  C    0.213243   0.336470
     2  C    0.213200   0.336322
     3  C    0.073556  -0.172792
     4  C    0.213244   0.336471
     5  C    0.213200   0.336322
     6  C    0.073556  -0.172792
 Electronic spatial extent (au):  <R**2>=            435.6848
 Charge=              1.0000 electrons
 Dipole moment (field-independent basis, Debye):
    X=             -0.0000    Y=             -0.0000    Z=              0.0000  Tot=              0.0000
 Quadrupole moment (field-independent basis, Debye-Ang):
   XX=            -21.5747   YY=            -18.1336   ZZ=            -35.2242
   XY=             -0.0004   XZ=              0.0000   YZ=              0.0000
 Traceless Quadrupole moment (field-independent basis, Debye-Ang):
   XX=              3.4028   YY=              6.8439   ZZ=            -10.2467
   XY=             -0.0004   XZ=              0.0000   YZ=              0.0000
 Octapole moment (field-independent basis, Debye-Ang**2):
  XXX=              0.0000  YYY=              0.0000  ZZZ=              0.0000  XYY=              0.0000
  XXY=              0.0000  XXZ=              0.0000  XZZ=              0.0000  YZZ=              0.0000
  YYZ=             -0.0000  XYZ=             -0.0000
 Hexadecapole moment (field-independent basis, Debye-Ang**3):
 XXXX=           -210.9902 YYYY=           -196.8153 ZZZZ=            -36.6719 XXXY=             -0.0007
 XXXZ=              0.0000 YYYX=             -0.0011 YYYZ=              0.0000 ZZZX=              0.0000
 ZZZY=              0.0000 XXYY=            -66.6319 XXZZ=            -56.2257 YYZZ=            -52.6166
 XXYZ=              0.0000 YYXZ=             -0.0000 ZZXY=             -0.0005
 N-N= 2.039742416542D+02 E-N=-9.363128043824D+02  KE= 2.309293560537D+02
                          Isotropic Fermi Contact Couplings
        Atom                 a.u.       MegaHertz       Gauss      10(-4) cm-1
     1  C(13)              0.00973      10.93543       3.90203       3.64767
     2  C(13)              0.00972      10.92538       3.89845       3.64432
     3  C(13)             -0.02105     -23.66926      -8.44578      -7.89521
     4  C(13)              0.00973      10.93544       3.90204       3.64767
     5  C(13)              0.00972      10.92539       3.89845       3.64432
     6  C(13)             -0.02105     -23.66926      -8.44578      -7.89521
     7  H(1)              -0.00516     -23.07259      -8.23287      -7.69619
     8  H(1)              -0.00516     -23.06431      -8.22992      -7.69342
     9  H(1)               0.00125       5.60355       1.99949       1.86914
    10  H(1)              -0.00516     -23.07259      -8.23287      -7.69619
    11  H(1)              -0.00516     -23.06431      -8.22992      -7.69343
    12  H(1)               0.00125       5.60355       1.99949       1.86914
 --------------------------------------------------------
       Center         ----  Spin Dipole Couplings  ----
                      3XX-RR        3YY-RR        3ZZ-RR
 --------------------------------------------------------
     1   Atom       -0.182452     -0.191137      0.373590
     2   Atom       -0.182379     -0.191068      0.373446
     3   Atom        0.056955      0.065294     -0.122250
     4   Atom       -0.182452     -0.191137      0.373590
     5   Atom       -0.182379     -0.191068      0.373446
     6   Atom        0.056955      0.065294     -0.122250
     7   Atom       -0.003733      0.009604     -0.005871
     8   Atom       -0.003727      0.009598     -0.005871
     9   Atom        0.000726      0.005326     -0.006052
    10   Atom       -0.003733      0.009604     -0.005871
    11   Atom       -0.003727      0.009598     -0.005871
    12   Atom        0.000726      0.005326     -0.006052
 --------------------------------------------------------
                        XY            XZ            YZ
 --------------------------------------------------------
     1   Atom       -0.004028     -0.000000      0.000000
     2   Atom        0.004028     -0.000000     -0.000000
     3   Atom        0.000002      0.000000      0.000000
     4   Atom       -0.004028      0.000000     -0.000000
     5   Atom        0.004028      0.000000      0.000000
     6   Atom        0.000002      0.000000     -0.000000
     7   Atom       -0.028182     -0.000000      0.000000
     8   Atom        0.028176      0.000000      0.000000
     9   Atom        0.000002     -0.000000      0.000000
    10   Atom       -0.028182      0.000000     -0.000000
    11   Atom        0.028176     -0.000000     -0.000000
    12   Atom        0.000002      0.000000      0.000000
 --------------------------------------------------------


 ---------------------------------------------------------------------------------
              Anisotropic Spin Dipole Couplings in Principal Axis System
 ---------------------------------------------------------------------------------

       Atom             a.u.   MegaHertz   Gauss  10(-4) cm-1        Axes

              Baa    -0.1927   -25.861    -9.228    -8.626  0.3653  0.9309 -0.0000
     1 C(13)  Bbb    -0.1809   -24.271    -8.661    -8.096  0.9309 -0.3653  0.0000
              Bcc     0.3736    50.132    17.888    16.722 -0.0000  0.0000  1.0000
 
              Baa    -0.1926   -25.852    -9.224    -8.623 -0.3652  0.9309  0.0000
     2 C(13)  Bbb    -0.1808   -24.261    -8.657    -8.093  0.9309  0.3652  0.0000
              Bcc     0.3734    50.113    17.882    16.716 -0.0000 -0.0000  1.0000
 
              Baa    -0.1222   -16.405    -5.854    -5.472 -0.0000 -0.0000  1.0000
     3 C(13)  Bbb     0.0570     7.643     2.727     2.549  1.0000 -0.0002  0.0000
              Bcc     0.0653     8.762     3.126     2.923  0.0002  1.0000  0.0000
 
              Baa    -0.1927   -25.861    -9.228    -8.626  0.3653  0.9309  0.0000
     4 C(13)  Bbb    -0.1809   -24.271    -8.661    -8.096  0.9309 -0.3653 -0.0000
              Bcc     0.3736    50.132    17.888    16.722  0.0000 -0.0000  1.0000
 
              Baa    -0.1926   -25.852    -9.224    -8.623 -0.3652  0.9309 -0.0000
     5 C(13)  Bbb    -0.1808   -24.261    -8.657    -8.093  0.9309  0.3652 -0.0000
              Bcc     0.3734    50.113    17.882    16.716  0.0000  0.0000  1.0000
 
              Baa    -0.1222   -16.405    -5.854    -5.472 -0.0000  0.0000  1.0000
     6 C(13)  Bbb     0.0570     7.643     2.727     2.549  1.0000 -0.0002  0.0000
              Bcc     0.0653     8.762     3.126     2.923  0.0002  1.0000 -0.0000
 
              Baa    -0.0260   -13.886    -4.955    -4.632  0.7843  0.6204  0.0000
     7 H(1)   Bbb    -0.0059    -3.133    -1.118    -1.045 -0.0000 -0.0000  1.0000
              Bcc     0.0319    17.018     6.073     5.677 -0.6204  0.7843  0.0000
 
              Baa    -0.0260   -13.882    -4.953    -4.630  0.7843 -0.6204  0.0000
     8 H(1)   Bbb    -0.0059    -3.133    -1.118    -1.045 -0.0000 -0.0000  1.0000
              Bcc     0.0319    17.014     6.071     5.675  0.6204  0.7843  0.0000
 
              Baa    -0.0061    -3.229    -1.152    -1.077  0.0000 -0.0000  1.0000
     9 H(1)   Bbb     0.0007     0.387     0.138     0.129  1.0000 -0.0005 -0.0000
              Bcc     0.0053     2.842     1.014     0.948  0.0005  1.0000  0.0000
 
              Baa    -0.0260   -13.886    -4.955    -4.632  0.7843  0.6204  0.0000
    10 H(1)   Bbb    -0.0059    -3.133    -1.118    -1.045 -0.0000  0.0000  1.0000
              Bcc     0.0319    17.018     6.073     5.677 -0.6204  0.7843 -0.0000
 
              Baa    -0.0260   -13.882    -4.953    -4.630  0.7843 -0.6204  0.0000
    11 H(1)   Bbb    -0.0059    -3.133    -1.118    -1.045  0.0000  0.0000  1.0000
              Bcc     0.0319    17.014     6.071     5.675  0.6204  0.7843 -0.0000
 
              Baa    -0.0061    -3.229    -1.152    -1.077 -0.0000 -0.0000  1.0000
    12 H(1)   Bbb     0.0007     0.387     0.138     0.129  1.0000 -0.0005  0.0000
              Bcc     0.0053     2.842     1.014     0.948  0.0005  1.0000  0.0000
 

 ---------------------------------------------------------------------------------

 No NMR shielding tensors so no spin-rotation constants.
 Leave Link  601 at Thu Jan 30 14:32:57 2025, MaxMem=   104857600 cpu:               0.1 elap:               0.1
 (Enter /sw/cluster/pub/apps//g16/l701.exe)
 ... and contract with generalized density number  0.
 Compute integral first derivatives.
 Leave Link  701 at Thu Jan 30 14:32:57 2025, MaxMem=   104857600 cpu:               0.0 elap:               0.0
 (Enter /sw/cluster/pub/apps//g16/l702.exe)
 L702 exits ... SP integral derivatives will be done elsewhere.
 Leave Link  702 at Thu Jan 30 14:32:58 2025, MaxMem=   104857600 cpu:               0.0 elap:               0.0
 (Enter /sw/cluster/pub/apps//g16/l703.exe)
 Integral derivatives from FoFJK, PRISM(SPDF).
 Compute integral first derivatives, UseDBF=F ICtDFT=           0.
 Calling FoFJK, ICntrl=      2127 FMM=F ISym2X=0 I1Cent= 0 IOpClX= 1 NMat=1 NMatS=1 NMatT=0.
 FoFJK:  IHMeth= 1 ICntrl=    2127 DoSepK=F KAlg= 0 I1Cent=           0 FoldK=F
 IRaf=         0 NMat=       1 IRICut=       1 DoRegI=T DoRafI=F ISym2E= 0 IDoP0=0 IntGTp=1.
 FoFCou: FMM=F IPFlag=           0 FMFlag=      100000 FMFlg1=         800
         NFxFlg=           0 DoJE=F BraDBF=F KetDBF=F FulRan=T
         wScrn=  0.000000 ICntrl=      2127 IOpCl=  1 I1Cent=           0 NGrid=           0
         NMat0=    1 NMatS0=      1 NMatT0=    0 NMatD0=    1 NMtDS0=    0 NMtDT0=    0
 Symmetry not used in FoFCou.
 Leave Link  703 at Thu Jan 30 14:33:04 2025, MaxMem=   104857600 cpu:               7.0 elap:               7.0
 (Enter /sw/cluster/pub/apps//g16/l716.exe)
 Dipole        =-1.49210831D-07-9.57947106D-08 4.62569374D-15
 -------------------------------------------------------------------
 Center     Atomic                   Forces (Hartrees/Bohr)
 Number     Number              X              Y              Z
 -------------------------------------------------------------------
      1        6          -0.044545796   -0.007095237   -0.000000000
      2        6           0.044556345   -0.007104398    0.000000000
      3        6           0.008730624    0.000013742   -0.000000000
      4        6           0.044545575    0.007095157    0.000000000
      5        6          -0.044556002    0.007104289   -0.000000000
      6        6          -0.008730693   -0.000013643    0.000000000
      7        1          -0.000534423    0.000162203    0.000000000
      8        1           0.000534284    0.000161744   -0.000000000
      9        1          -0.001176254    0.000000145    0.000000000
     10        1           0.000534414   -0.000162177   -0.000000000
     11        1          -0.000534326   -0.000161720    0.000000000
     12        1           0.001176252   -0.000000104   -0.000000000
 -------------------------------------------------------------------
 Cartesian Forces:  Max     0.044556345 RMS     0.015181524
 Leave Link  716 at Thu Jan 30 14:33:04 2025, MaxMem=   104857600 cpu:               0.0 elap:               0.0
 (Enter /sw/cluster/pub/apps//g16/l103.exe)

 GradGradGradGradGradGradGradGradGradGradGradGradGradGradGradGradGradGrad
 Berny optimization.
 FormGI is forming the generalized inverse of G from B-inverse, IUseBI=4.
 Internal  Forces:  Max     0.048862584 RMS     0.009731883
 Search for a local minimum.
 Step number   1 out of a maximum of   64
 All quantities printed in internal units (Hartrees-Bohrs-Radians)
 RMS Force = .97319D-02 SwitMx=.10000D-02 MixMth= 1
 Mixed Optimization -- RFO/linear search
 Second derivative matrix not updated -- first step.
 ITU=  0
     Eigenvalues ---    0.02212   0.02212   0.02212   0.02212   0.02212
     Eigenvalues ---    0.02212   0.02213   0.02213   0.02213   0.16000
     Eigenvalues ---    0.16000   0.16000   0.16000   0.16000   0.16000
     Eigenvalues ---    0.22000   0.22000   0.22000   0.35360   0.35360
     Eigenvalues ---    0.35360   0.35360   0.35361   0.35361   0.42705
     Eigenvalues ---    0.42709   0.47200   0.47205   0.47207   0.47207
 RFO step:  Lambda=-1.11928969D-02 EMin= 2.21218117D-02
 Linear search not attempted -- first point.
 Iteration  1 RMS(Cart)=  0.03024625 RMS(Int)=  0.00010501
 Iteration  2 RMS(Cart)=  0.00012838 RMS(Int)=  0.00000000
 Iteration  3 RMS(Cart)=  0.00000001 RMS(Int)=  0.00000000
 ITry= 1 IFail=0 DXMaxC= 8.39D-02 DCOld= 1.00D+10 DXMaxT= 3.00D-01 DXLimC= 3.00D+00 Rises=F
 Variable       Old X    -DE/DX   Delta X   Delta X   Delta X     New X
                                 (Linear)    (Quad)   (Total)
    R1        2.62801   0.04886   0.00000   0.10112   0.10112   2.72913
    R2        2.62793  -0.00411   0.00000  -0.00851  -0.00851   2.61943
    R3        2.05094   0.00041   0.00000   0.00112   0.00112   2.05206
    R4        2.62793  -0.00413   0.00000  -0.00854  -0.00854   2.61939
    R5        2.05094   0.00041   0.00000   0.00112   0.00112   2.05205
    R6        2.62793  -0.00411   0.00000  -0.00851  -0.00851   2.61943
    R7        2.05093  -0.00118   0.00000  -0.00322  -0.00322   2.04770
    R8        2.62801   0.04886   0.00000   0.10112   0.10112   2.72913
    R9        2.05094   0.00041   0.00000   0.00112   0.00112   2.05206
   R10        2.62793  -0.00413   0.00000  -0.00854  -0.00854   2.61939
   R11        2.05094   0.00041   0.00000   0.00112   0.00112   2.05205
   R12        2.05093  -0.00118   0.00000  -0.00322  -0.00322   2.04770
    A1        2.09443   0.00385   0.00000   0.01666   0.01666   2.11109
    A2        2.09435  -0.00153   0.00000  -0.00604  -0.00604   2.08831
    A3        2.09440  -0.00232   0.00000  -0.01062  -0.01062   2.08378
    A4        2.09443   0.00385   0.00000   0.01664   0.01664   2.11107
    A5        2.09435  -0.00153   0.00000  -0.00603  -0.00603   2.08832
    A6        2.09440  -0.00232   0.00000  -0.01061  -0.01061   2.08379
    A7        2.09432  -0.00770   0.00000  -0.03330  -0.03330   2.06102
    A8        2.09443   0.00385   0.00000   0.01665   0.01665   2.11108
    A9        2.09443   0.00385   0.00000   0.01665   0.01665   2.11108
   A10        2.09443   0.00385   0.00000   0.01666   0.01666   2.11109
   A11        2.09440  -0.00232   0.00000  -0.01062  -0.01062   2.08378
   A12        2.09435  -0.00153   0.00000  -0.00604  -0.00604   2.08831
   A13        2.09443   0.00385   0.00000   0.01664   0.01664   2.11107
   A14        2.09435  -0.00153   0.00000  -0.00603  -0.00603   2.08832
   A15        2.09440  -0.00232   0.00000  -0.01061  -0.01061   2.08379
   A16        2.09432  -0.00770   0.00000  -0.03330  -0.03330   2.06102
   A17        2.09443   0.00385   0.00000   0.01665   0.01665   2.11108
   A18        2.09443   0.00385   0.00000   0.01665   0.01665   2.11108
    D1        0.00000  -0.00000   0.00000  -0.00000  -0.00000   0.00000
    D2        3.14159  -0.00000   0.00000  -0.00000   0.00000   3.14159
    D3        3.14159  -0.00000   0.00000  -0.00000   0.00000   3.14159
    D4        0.00000  -0.00000   0.00000  -0.00000   0.00000   0.00000
    D5        0.00000   0.00000   0.00000   0.00000   0.00000   0.00000
    D6        3.14159   0.00000   0.00000   0.00000   0.00000   3.14159
    D7        3.14159   0.00000   0.00000   0.00000   0.00000   3.14159
    D8        0.00000   0.00000   0.00000   0.00000  -0.00000   0.00000
    D9        0.00000   0.00000   0.00000   0.00000   0.00000   0.00000
   D10        3.14159   0.00000   0.00000   0.00000   0.00000   3.14159
   D11        3.14159   0.00000   0.00000   0.00000   0.00000   3.14159
   D12        0.00000   0.00000   0.00000   0.00000  -0.00000   0.00000
   D13        0.00000  -0.00000   0.00000  -0.00000  -0.00000   0.00000
   D14        3.14159  -0.00000   0.00000  -0.00000   0.00000   3.14159
   D15        3.14159  -0.00000   0.00000  -0.00000   0.00000   3.14159
   D16        0.00000  -0.00000   0.00000  -0.00000   0.00000   0.00000
   D17        0.00000   0.00000   0.00000   0.00000   0.00000   0.00000
   D18        3.14159   0.00000   0.00000   0.00000   0.00000   3.14159
   D19        3.14159   0.00000   0.00000   0.00000   0.00000   3.14159
   D20        0.00000   0.00000   0.00000   0.00000  -0.00000   0.00000
   D21        0.00000  -0.00000   0.00000  -0.00000  -0.00000   0.00000
   D22        3.14159  -0.00000   0.00000  -0.00000   0.00000   3.14159
   D23        3.14159  -0.00000   0.00000  -0.00000   0.00000   3.14159
   D24        0.00000  -0.00000   0.00000  -0.00000   0.00000   0.00000
         Item               Value     Threshold  Converged?
 Maximum Force            0.048863     0.000450     NO 
 RMS     Force            0.009732     0.000300     NO 
 Maximum Displacement     0.083884     0.001800     NO 
 RMS     Displacement     0.030220     0.001200     NO 
 Predicted change in Energy=-5.740839D-03
 Lowest energy point so far.  Saving SCF results.
 GradGradGradGradGradGradGradGradGradGradGradGradGradGradGradGradGradGrad

 Leave Link  103 at Thu Jan 30 14:33:05 2025, MaxMem=   104857600 cpu:               0.0 elap:               0.0
 (Enter /sw/cluster/pub/apps//g16/l202.exe)
                          Input orientation:                          
 ---------------------------------------------------------------------
 Center     Atomic      Atomic             Coordinates (Angstroms)
 Number     Number       Type             X           Y           Z
 ---------------------------------------------------------------------
      1          6           0       -0.722091    1.188689    0.000000
      2          6           0        0.722104    1.188698   -0.000000
      3          6           0        1.435098    0.000011    0.000000
      4          6           0        0.722090   -1.188690   -0.000000
      5          6           0       -0.722105   -1.188698    0.000000
      6          6           0       -1.435098   -0.000011   -0.000000
      7          1           0       -1.259316    2.132390    0.000000
      8          1           0        1.259326    2.132399   -0.000000
      9          1           0        2.518695    0.000010    0.000000
     10          1           0        1.259316   -2.132390   -0.000000
     11          1           0       -1.259326   -2.132400    0.000000
     12          1           0       -2.518695   -0.000010   -0.000000
 ---------------------------------------------------------------------
                    Distance matrix (angstroms):
                    1          2          3          4          5
     1  C    0.000000
     2  C    1.444195   0.000000
     3  C    2.463010   1.386123   0.000000
     4  C    2.781652   2.377387   1.386142   0.000000
     5  C    2.377387   2.781681   2.463037   1.444195   0.000000
     6  C    1.386142   2.463037   2.870196   2.463010   1.386123
     7  H    1.085901   2.194671   3.436118   3.867239   3.364256
     8  H    2.194676   1.085901   2.139621   3.364261   3.867267
     9  H    3.451905   2.154232   1.083597   2.154250   3.451928
    10  H    3.867239   3.364256   2.139634   1.085901   2.194671
    11  H    3.364262   3.867267   3.436146   2.194676   1.085901
    12  H    2.154250   3.451928   3.953793   3.451905   2.154232
                    6          7          8          9         10
     6  C    0.000000
     7  H    2.139634   0.000000
     8  H    3.436146   2.518642   0.000000
     9  H    3.953793   4.338249   2.476509   0.000000
    10  H    3.436118   4.952964   4.264790   2.476523   0.000000
    11  H    2.139621   4.264790   4.952991   4.338273   2.518642
    12  H    1.083597   2.476523   4.338273   5.037389   4.338249
                   11         12
    11  H    0.000000
    12  H    2.476509   0.000000
 Symmetry turned off by external request.
 Stoichiometry    C6H6(1+,2)
 Framework group  CS[SG(C6H6)]
 Deg. of freedom    21
 Full point group                 CS      NOp   2
 Rotational constants (GHZ):           5.8659680           5.3972346           2.8109239
 Leave Link  202 at Thu Jan 30 14:33:05 2025, MaxMem=   104857600 cpu:               0.0 elap:               0.0
 (Enter /sw/cluster/pub/apps//g16/l301.exe)
 Standard basis: 6-311++G(d,p) (5D, 7F)
 Ernie: Thresh=  0.10000D-02 Tol=  0.10000D-05 Strict=F.
   174 basis functions,   270 primitive gaussians,   180 cartesian basis functions
    21 alpha electrons       20 beta electrons
       nuclear repulsion energy       202.1992020291 Hartrees.
 IExCor= 1009 DFT=T Ex+Corr=PBE1PBE ExCW=0 ScaHFX=  0.250000
 ScaDFX=  0.750000  0.750000  1.000000  1.000000 ScalE2=  1.000000  1.000000
 IRadAn=      5 IRanWt=     -1 IRanGd=            0 ICorTp=0 IEmpDi=  4
 NAtoms=   12 NActive=   12 NUniq=   12 SFac= 1.00D+00 NAtFMM=   60 NAOKFM=F Big=F
 Integral buffers will be    131072 words long.
 Raffenetti 2 integral format.
 Two-electron integral symmetry is turned off.
 Leave Link  301 at Thu Jan 30 14:33:05 2025, MaxMem=   104857600 cpu:               0.0 elap:               0.0
 (Enter /sw/cluster/pub/apps//g16/l302.exe)
 NPDir=0 NMtPBC=     1 NCelOv=     1 NCel=       1 NClECP=     1 NCelD=      1
         NCelK=      1 NCelE2=     1 NClLst=     1 CellRange=     0.0.
 One-electron integrals computed using PRISM.
 NBasis=   174 RedAO= T EigKep=  1.16D-06  NBF=   174
 NBsUse=   174 1.00D-06 EigRej= -1.00D+00 NBFU=   174
 Precomputing XC quadrature grid using
 IXCGrd= 4 IRadAn=           5 IRanWt=          -1 IRanGd=           0 AccXCQ= 0.00D+00.
 Generated NRdTot=       0 NPtTot=           0 NUsed=           0 NTot=          32
 NSgBfM=   180   180   180   180   180 MxSgAt=    12 MxSgA2=    12.
 Leave Link  302 at Thu Jan 30 14:33:05 2025, MaxMem=   104857600 cpu:               0.1 elap:               0.1
 (Enter /sw/cluster/pub/apps//g16/l303.exe)
 DipDrv:  MaxL=1.
 Leave Link  303 at Thu Jan 30 14:33:05 2025, MaxMem=   104857600 cpu:               0.0 elap:               0.0
 (Enter /sw/cluster/pub/apps//g16/l401.exe)
 Initial guess from the checkpoint file:  "benzene-CAT.chk"
 B after Tr=     0.000000   -0.000000    0.000000
         Rot=    1.000000   -0.000000    0.000000   -0.000000 Ang=   0.00 deg.
 Guess basis will be translated and rotated to current coordinates.
 JPrj=2 DoOrth=T DoCkMO=T.
 Initial guess <Sx>= 0.0000 <Sy>= 0.0000 <Sz>= 0.5000 <S**2>= 0.7711 S= 0.5105
 Generating alternative initial guess.
 ExpMin= 3.60D-02 ExpMax= 4.56D+03 ExpMxC= 6.82D+02 IAcc=3 IRadAn=         5 AccDes= 0.00D+00
 Harris functional with IExCor= 1009 and IRadAn=       5 diagonalized for initial guess.
 HarFok:  IExCor= 1009 AccDes= 0.00D+00 IRadAn=         5 IDoV= 1 UseB2=F ITyADJ=14
 ICtDFT=  3500011 ScaDFX=  1.000000  1.000000  1.000000  1.000000
 FoFCou: FMM=F IPFlag=           0 FMFlag=      100000 FMFlg1=           0
         NFxFlg=           0 DoJE=T BraDBF=F KetDBF=T FulRan=T
         wScrn=  0.000000 ICntrl=       500 IOpCl=  0 I1Cent=   200000004 NGrid=           0
         NMat0=    1 NMatS0=      1 NMatT0=    0 NMatD0=    1 NMtDS0=    0 NMtDT0=    0
 Symmetry not used in FoFCou.
 Harris En= -231.767880989831    
 Leave Link  401 at Thu Jan 30 14:33:06 2025, MaxMem=   104857600 cpu:               1.1 elap:               1.1
 (Enter /sw/cluster/pub/apps//g16/l502.exe)
 Two-electron integral symmetry not used.
 UHF open shell SCF:
 Using DIIS extrapolation, IDIIS=  1040.
 NGot=   104857600 LenX=   104790300 LenY=   104757459
 Requested convergence on RMS density matrix=1.00D-08 within 128 cycles.
 Requested convergence on MAX density matrix=1.00D-06.
 Requested convergence on             energy=1.00D-06.
 No special actions if energy rises.
 Fock matrices will be formed incrementally for  20 cycles.

 Cycle   1  Pass 1  IDiag  1:
 FoFJK:  IHMeth= 1 ICntrl=       0 DoSepK=F KAlg= 0 I1Cent=           0 FoldK=F
 IRaf= 990000000 NMat=       1 IRICut=       1 DoRegI=T DoRafI=F ISym2E= 0 IDoP0=0 IntGTp=1.
 FoFCou: FMM=F IPFlag=           0 FMFlag=      100000 FMFlg1=           0
         NFxFlg=           0 DoJE=F BraDBF=F KetDBF=F FulRan=T
         wScrn=  0.000000 ICntrl=         0 IOpCl=  1 I1Cent=           0 NGrid=           0
         NMat0=    1 NMatS0=      1 NMatT0=    0 NMatD0=    1 NMtDS0=    0 NMtDT0=    0
 Symmetry not used in FoFCou.
 E= -231.681597755044    
 DIIS: error= 4.27D-03 at cycle   1 NSaved=   1.
 NSaved= 1 IEnMin= 1 EnMin= -231.681597755044     IErMin= 1 ErrMin= 4.27D-03
 ErrMax= 4.27D-03  0.00D+00 EMaxC= 1.00D-01 BMatC= 7.22D-03 BMatP= 7.22D-03
 IDIUse=3 WtCom= 9.57D-01 WtEn= 4.27D-02
 Coeff-Com:  0.100D+01
 Coeff-En:   0.100D+01
 Coeff:      0.100D+01
 Gap=     0.454 Goal=   None    Shift=    0.000
 Gap=     0.452 Goal=   None    Shift=    0.000
 GapD=    0.452 DampG=2.000 DampE=1.000 DampFc=2.0000 IDamp=-1.
 RMSDP=1.87D-03 MaxDP=7.25D-02              OVMax= 1.60D-02

 Cycle   2  Pass 1  IDiag  1:
 RMSU=  1.64D-03    CP:  9.63D-01
 E= -231.683267370943     Delta-E=       -0.001669615900 Rises=F Damp=F
 DIIS: error= 2.13D-03 at cycle   2 NSaved=   2.
 NSaved= 2 IEnMin= 2 EnMin= -231.683267370943     IErMin= 2 ErrMin= 2.13D-03
 ErrMax= 2.13D-03  0.00D+00 EMaxC= 1.00D-01 BMatC= 1.17D-03 BMatP= 7.22D-03
 IDIUse=3 WtCom= 9.79D-01 WtEn= 2.13D-02
 Coeff-Com:  0.187D+00 0.813D+00
 Coeff-En:   0.000D+00 0.100D+01
 Coeff:      0.183D+00 0.817D+00
 Gap=     0.234 Goal=   None    Shift=    0.000
 Gap=     0.087 Goal=   None    Shift=    0.000
 RMSDP=1.83D-04 MaxDP=3.20D-03 DE=-1.67D-03 OVMax= 9.53D-03

 Cycle   3  Pass 1  IDiag  1:
 RMSU=  1.78D-04    CP:  9.64D-01  1.03D+00
 E= -231.683336624156     Delta-E=       -0.000069253213 Rises=F Damp=F
 DIIS: error= 1.80D-03 at cycle   3 NSaved=   3.
 NSaved= 3 IEnMin= 3 EnMin= -231.683336624156     IErMin= 3 ErrMin= 1.80D-03
 ErrMax= 1.80D-03  0.00D+00 EMaxC= 1.00D-01 BMatC= 8.41D-04 BMatP= 1.17D-03
 IDIUse=3 WtCom= 9.82D-01 WtEn= 1.80D-02
 Coeff-Com: -0.153D-01 0.460D+00 0.556D+00
 Coeff-En:   0.000D+00 0.433D+00 0.567D+00
 Coeff:     -0.150D-01 0.459D+00 0.556D+00
 Gap=     0.236 Goal=   None    Shift=    0.000
 Gap=     0.090 Goal=   None    Shift=    0.000
 RMSDP=9.21D-05 MaxDP=1.64D-03 DE=-6.93D-05 OVMax= 5.22D-03

 Cycle   4  Pass 1  IDiag  1:
 RMSU=  5.50D-05    CP:  9.63D-01  1.03D+00  5.91D-01
 E= -231.683537194287     Delta-E=       -0.000200570131 Rises=F Damp=F
 DIIS: error= 1.49D-04 at cycle   4 NSaved=   4.
 NSaved= 4 IEnMin= 4 EnMin= -231.683537194287     IErMin= 4 ErrMin= 1.49D-04
 ErrMax= 1.49D-04  0.00D+00 EMaxC= 1.00D-01 BMatC= 5.62D-06 BMatP= 8.41D-04
 IDIUse=3 WtCom= 9.99D-01 WtEn= 1.49D-03
 Coeff-Com: -0.736D-02 0.114D+00 0.171D+00 0.723D+00
 Coeff-En:   0.000D+00 0.000D+00 0.000D+00 0.100D+01
 Coeff:     -0.735D-02 0.113D+00 0.171D+00 0.723D+00
 Gap=     0.236 Goal=   None    Shift=    0.000
 Gap=     0.090 Goal=   None    Shift=    0.000
 RMSDP=1.70D-05 MaxDP=7.04D-04 DE=-2.01D-04 OVMax= 4.42D-04

 Cycle   5  Pass 1  IDiag  1:
 RMSU=  1.33D-05    CP:  9.63D-01  1.03D+00  5.92D-01  9.69D-01
 E= -231.683538414816     Delta-E=       -0.000001220529 Rises=F Damp=F
 DIIS: error= 4.91D-05 at cycle   5 NSaved=   5.
 NSaved= 5 IEnMin= 5 EnMin= -231.683538414816     IErMin= 5 ErrMin= 4.91D-05
 ErrMax= 4.91D-05  0.00D+00 EMaxC= 1.00D-01 BMatC= 7.40D-07 BMatP= 5.62D-06
 IDIUse=1 WtCom= 1.00D+00 WtEn= 0.00D+00
 Coeff-Com: -0.173D-02 0.143D-01 0.339D-01 0.315D+00 0.638D+00
 Coeff:     -0.173D-02 0.143D-01 0.339D-01 0.315D+00 0.638D+00
 Gap=     0.236 Goal=   None    Shift=    0.000
 Gap=     0.090 Goal=   None    Shift=    0.000
 RMSDP=4.61D-06 MaxDP=1.47D-04 DE=-1.22D-06 OVMax= 1.06D-04

 Cycle   6  Pass 1  IDiag  1:
 RMSU=  2.08D-06    CP:  9.63D-01  1.03D+00  6.00D-01  9.92D-01  8.10D-01
 E= -231.683538606286     Delta-E=       -0.000000191470 Rises=F Damp=F
 DIIS: error= 4.10D-06 at cycle   6 NSaved=   6.
 NSaved= 6 IEnMin= 6 EnMin= -231.683538606286     IErMin= 6 ErrMin= 4.10D-06
 ErrMax= 4.10D-06  0.00D+00 EMaxC= 1.00D-01 BMatC= 5.06D-09 BMatP= 7.40D-07
 IDIUse=1 WtCom= 1.00D+00 WtEn= 0.00D+00
 Coeff-Com:  0.286D-04-0.317D-02-0.227D-02 0.200D-01 0.100D+00 0.885D+00
 Coeff:      0.286D-04-0.317D-02-0.227D-02 0.200D-01 0.100D+00 0.885D+00
 Gap=     0.236 Goal=   None    Shift=    0.000
 Gap=     0.090 Goal=   None    Shift=    0.000
 RMSDP=6.32D-07 MaxDP=1.86D-05 DE=-1.91D-07 OVMax= 9.64D-06

 Cycle   7  Pass 1  IDiag  1:
 RMSU=  4.07D-07    CP:  9.63D-01  1.03D+00  6.01D-01  9.92D-01  8.04D-01
                    CP:  9.46D-01
 E= -231.683538607592     Delta-E=       -0.000000001306 Rises=F Damp=F
 DIIS: error= 6.88D-07 at cycle   7 NSaved=   7.
 NSaved= 7 IEnMin= 7 EnMin= -231.683538607592     IErMin= 7 ErrMin= 6.88D-07
 ErrMax= 6.88D-07  0.00D+00 EMaxC= 1.00D-01 BMatC= 7.52D-11 BMatP= 5.06D-09
 IDIUse=1 WtCom= 1.00D+00 WtEn= 0.00D+00
 Coeff-Com:  0.285D-04-0.558D-03-0.865D-03-0.395D-02-0.780D-04 0.871D-01
 Coeff-Com:  0.918D+00
 Coeff:      0.285D-04-0.558D-03-0.865D-03-0.395D-02-0.780D-04 0.871D-01
 Coeff:      0.918D+00
 Gap=     0.236 Goal=   None    Shift=    0.000
 Gap=     0.090 Goal=   None    Shift=    0.000
 RMSDP=1.21D-07 MaxDP=4.56D-06 DE=-1.31D-09 OVMax= 2.22D-06

 Cycle   8  Pass 1  IDiag  1:
 RMSU=  6.80D-08    CP:  9.63D-01  1.03D+00  6.01D-01  9.93D-01  8.08D-01
                    CP:  9.62D-01  1.06D+00
 E= -231.683538607620     Delta-E=       -0.000000000028 Rises=F Damp=F
 DIIS: error= 1.51D-07 at cycle   8 NSaved=   8.
 NSaved= 8 IEnMin= 8 EnMin= -231.683538607620     IErMin= 8 ErrMin= 1.51D-07
 ErrMax= 1.51D-07  0.00D+00 EMaxC= 1.00D-01 BMatC= 4.62D-12 BMatP= 7.52D-11
 IDIUse=1 WtCom= 1.00D+00 WtEn= 0.00D+00
 Coeff-Com: -0.332D-06 0.143D-03 0.866D-04-0.118D-02-0.496D-02-0.374D-01
 Coeff-Com:  0.647D-01 0.979D+00
 Coeff:     -0.332D-06 0.143D-03 0.866D-04-0.118D-02-0.496D-02-0.374D-01
 Coeff:      0.647D-01 0.979D+00
 Gap=     0.236 Goal=   None    Shift=    0.000
 Gap=     0.090 Goal=   None    Shift=    0.000
 RMSDP=3.89D-08 MaxDP=1.50D-06 DE=-2.77D-11 OVMax= 2.51D-06

 Cycle   9  Pass 1  IDiag  1:
 RMSU=  2.89D-08    CP:  9.63D-01  1.03D+00  6.01D-01  9.93D-01  8.08D-01
                    CP:  9.65D-01  1.10D+00  1.13D+00
 E= -231.683538607622     Delta-E=       -0.000000000003 Rises=F Damp=F
 DIIS: error= 7.60D-08 at cycle   9 NSaved=   9.
 NSaved= 9 IEnMin= 9 EnMin= -231.683538607622     IErMin= 9 ErrMin= 7.60D-08
 ErrMax= 7.60D-08  0.00D+00 EMaxC= 1.00D-01 BMatC= 8.46D-13 BMatP= 4.62D-12
 IDIUse=1 WtCom= 1.00D+00 WtEn= 0.00D+00
 Coeff-Com: -0.103D-05 0.367D-04 0.427D-04 0.488D-04-0.581D-03-0.789D-02
 Coeff-Com: -0.330D-01 0.134D+00 0.908D+00
 Coeff:     -0.103D-05 0.367D-04 0.427D-04 0.488D-04-0.581D-03-0.789D-02
 Coeff:     -0.330D-01 0.134D+00 0.908D+00
 Gap=     0.236 Goal=   None    Shift=    0.000
 Gap=     0.090 Goal=   None    Shift=    0.000
 RMSDP=1.58D-08 MaxDP=4.19D-07 DE=-2.61D-12 OVMax= 1.47D-06

 Cycle  10  Pass 1  IDiag  1:
 RMSU=  7.51D-09    CP:  9.63D-01  1.03D+00  6.01D-01  9.93D-01  8.08D-01
                    CP:  9.66D-01  1.11D+00  1.20D+00  1.41D+00
 E= -231.683538607623     Delta-E=       -0.000000000001 Rises=F Damp=F
 DIIS: error= 8.93D-08 at cycle  10 NSaved=  10.
 NSaved=10 IEnMin=10 EnMin= -231.683538607623     IErMin= 9 ErrMin= 7.60D-08
 ErrMax= 8.93D-08  0.00D+00 EMaxC= 1.00D-01 BMatC= 3.21D-13 BMatP= 8.46D-13
 IDIUse=1 WtCom= 1.00D+00 WtEn= 0.00D+00
 Coeff-Com: -0.474D-06-0.673D-05 0.650D-05 0.235D-03 0.593D-03 0.264D-02
 Coeff-Com: -0.280D-01-0.103D+00 0.364D+00 0.764D+00
 Coeff:     -0.474D-06-0.673D-05 0.650D-05 0.235D-03 0.593D-03 0.264D-02
 Coeff:     -0.280D-01-0.103D+00 0.364D+00 0.764D+00
 Gap=     0.236 Goal=   None    Shift=    0.000
 Gap=     0.090 Goal=   None    Shift=    0.000
 RMSDP=9.48D-09 MaxDP=2.57D-07 DE=-7.96D-13 OVMax= 1.87D-06

 SCF Done:  E(UPBE1PBE) =  -231.683538608     A.U. after   10 cycles
            NFock= 10  Conv=0.95D-08     -V/T= 2.0042
 <Sx>= 0.0000 <Sy>= 0.0000 <Sz>= 0.5000 <S**2>= 0.7711 S= 0.5105
 <L.S>=  0.00000000000    
 KE= 2.307233268289D+02 PE=-9.326436072281D+02 EE= 2.680375397625D+02
 Annihilation of the first spin contaminant:
 S**2 before annihilation     0.7711,   after     0.7503
 Leave Link  502 at Thu Jan 30 14:33:34 2025, MaxMem=   104857600 cpu:              28.2 elap:              28.2
 (Enter /sw/cluster/pub/apps//g16/l701.exe)
 ... and contract with generalized density number  0.
 Compute integral first derivatives.
 Leave Link  701 at Thu Jan 30 14:33:34 2025, MaxMem=   104857600 cpu:               0.1 elap:               0.0
 (Enter /sw/cluster/pub/apps//g16/l702.exe)
 L702 exits ... SP integral derivatives will be done elsewhere.
 Leave Link  702 at Thu Jan 30 14:33:34 2025, MaxMem=   104857600 cpu:               0.0 elap:               0.0
 (Enter /sw/cluster/pub/apps//g16/l703.exe)
 Integral derivatives from FoFJK, PRISM(SPDF).
 Compute integral first derivatives, UseDBF=F ICtDFT=           0.
 Calling FoFJK, ICntrl=      2127 FMM=F ISym2X=0 I1Cent= 0 IOpClX= 1 NMat=1 NMatS=1 NMatT=0.
 FoFJK:  IHMeth= 1 ICntrl=    2127 DoSepK=F KAlg= 0 I1Cent=           0 FoldK=F
 IRaf=         0 NMat=       1 IRICut=       1 DoRegI=T DoRafI=F ISym2E= 0 IDoP0=0 IntGTp=1.
 FoFCou: FMM=F IPFlag=           0 FMFlag=      100000 FMFlg1=         800
         NFxFlg=           0 DoJE=F BraDBF=F KetDBF=F FulRan=T
         wScrn=  0.000000 ICntrl=      2127 IOpCl=  1 I1Cent=           0 NGrid=           0
         NMat0=    1 NMatS0=      1 NMatT0=    0 NMatD0=    1 NMtDS0=    0 NMtDT0=    0
 Symmetry not used in FoFCou.
 Leave Link  703 at Thu Jan 30 14:33:41 2025, MaxMem=   104857600 cpu:               7.0 elap:               7.0
 (Enter /sw/cluster/pub/apps//g16/l716.exe)
 Dipole        =-1.48728342D-07-7.43295868D-07-3.37616782D-12
 -------------------------------------------------------------------
 Center     Atomic                   Forces (Hartrees/Bohr)
 Number     Number              X              Y              Z
 -------------------------------------------------------------------
      1        6          -0.004132360   -0.000646426   -0.000000000
      2        6           0.004133802   -0.000649184    0.000000000
      3        6          -0.003594411    0.000002561   -0.000000000
      4        6           0.004132250    0.000646408    0.000000000
      5        6          -0.004133667    0.000649154   -0.000000000
      6        6           0.003594395   -0.000002568    0.000000000
      7        1           0.002074938    0.001179326    0.000000000
      8        1          -0.002075636    0.001179569   -0.000000000
      9        1          -0.000238622   -0.000000711   -0.000000000
     10        1          -0.002074940   -0.001179305   -0.000000000
     11        1           0.002075627   -0.001179543    0.000000000
     12        1           0.000238624    0.000000719   -0.000000000
 -------------------------------------------------------------------
 Cartesian Forces:  Max     0.004133802 RMS     0.001816214
 Leave Link  716 at Thu Jan 30 14:33:41 2025, MaxMem=   104857600 cpu:               0.0 elap:               0.0
 (Enter /sw/cluster/pub/apps//g16/l103.exe)

 GradGradGradGradGradGradGradGradGradGradGradGradGradGradGradGradGradGrad
 Berny optimization.
 Using GEDIIS/GDIIS optimizer.
 FormGI is forming the generalized inverse of G from B-inverse, IUseBI=4.
 Internal  Forces:  Max     0.002735312 RMS     0.001010546
 Search for a local minimum.
 Step number   2 out of a maximum of   64
 All quantities printed in internal units (Hartrees-Bohrs-Radians)
 RMS Force = .10105D-02 SwitMx=.10000D-02 MixMth= 1
 Mixed Optimization -- RFO/linear search
 Update second derivatives using D2CorX and points    1    2
 DE= -5.28D-03 DEPred=-5.74D-03 R= 9.19D-01
 TightC=F SS=  1.41D+00  RLast= 1.61D-01 DXNew= 5.0454D-01 4.8187D-01
 Trust test= 9.19D-01 RLast= 1.61D-01 DXMaxT set to 4.82D-01
 ITU=  1  0
 Use linear search instead of GDIIS.
     Eigenvalues ---    0.02212   0.02212   0.02212   0.02212   0.02212
     Eigenvalues ---    0.02212   0.02213   0.02213   0.02213   0.15850
     Eigenvalues ---    0.16000   0.16000   0.16000   0.16000   0.16000
     Eigenvalues ---    0.22000   0.22000   0.22863   0.35350   0.35360
     Eigenvalues ---    0.35360   0.35360   0.35361   0.35361   0.42535
     Eigenvalues ---    0.43021   0.46799   0.47205   0.47207   0.48200
 RFO step:  Lambda=-3.16130186D-04 EMin= 2.21217375D-02
 Quartic linear search produced a step of -0.01679.
 Iteration  1 RMS(Cart)=  0.00777386 RMS(Int)=  0.00005399
 Iteration  2 RMS(Cart)=  0.00005551 RMS(Int)=  0.00000000
 Iteration  3 RMS(Cart)=  0.00000000 RMS(Int)=  0.00000000
 ITry= 1 IFail=0 DXMaxC= 2.34D-02 DCOld= 1.00D+10 DXMaxT= 4.82D-01 DXLimC= 3.00D+00 Rises=F
 Variable       Old X    -DE/DX   Delta X   Delta X   Delta X     New X
                                 (Linear)    (Quad)   (Total)
    R1        2.72913   0.00014  -0.00170   0.00475   0.00306   2.73219
    R2        2.61943  -0.00053   0.00014  -0.00148  -0.00133   2.61809
    R3        2.05206  -0.00000  -0.00002   0.00004   0.00003   2.05208
    R4        2.61939  -0.00053   0.00014  -0.00148  -0.00134   2.61805
    R5        2.05205  -0.00000  -0.00002   0.00004   0.00003   2.05208
    R6        2.61943  -0.00053   0.00014  -0.00148  -0.00133   2.61809
    R7        2.04770  -0.00024   0.00005  -0.00080  -0.00075   2.04695
    R8        2.72913   0.00014  -0.00170   0.00475   0.00306   2.73219
    R9        2.05206  -0.00000  -0.00002   0.00004   0.00003   2.05208
   R10        2.61939  -0.00053   0.00014  -0.00148  -0.00134   2.61805
   R11        2.05205  -0.00000  -0.00002   0.00004   0.00002   2.05208
   R12        2.04770  -0.00024   0.00005  -0.00080  -0.00075   2.04695
    A1        2.11109  -0.00057  -0.00028  -0.00185  -0.00212   2.10897
    A2        2.08831  -0.00216   0.00010  -0.01400  -0.01390   2.07441
    A3        2.08378   0.00273   0.00018   0.01585   0.01602   2.09981
    A4        2.11107  -0.00057  -0.00028  -0.00185  -0.00212   2.10895
    A5        2.08832  -0.00216   0.00010  -0.01401  -0.01390   2.07442
    A6        2.08379   0.00274   0.00018   0.01585   0.01603   2.09982
    A7        2.06102   0.00114   0.00056   0.00369   0.00425   2.06527
    A8        2.11108  -0.00057  -0.00028  -0.00184  -0.00212   2.10896
    A9        2.11108  -0.00057  -0.00028  -0.00185  -0.00213   2.10895
   A10        2.11109  -0.00057  -0.00028  -0.00185  -0.00212   2.10897
   A11        2.08378   0.00273   0.00018   0.01585   0.01602   2.09981
   A12        2.08831  -0.00216   0.00010  -0.01400  -0.01390   2.07441
   A13        2.11107  -0.00057  -0.00028  -0.00185  -0.00212   2.10895
   A14        2.08832  -0.00216   0.00010  -0.01401  -0.01390   2.07442
   A15        2.08379   0.00274   0.00018   0.01585   0.01603   2.09982
   A16        2.06102   0.00114   0.00056   0.00369   0.00425   2.06527
   A17        2.11108  -0.00057  -0.00028  -0.00185  -0.00213   2.10895
   A18        2.11108  -0.00057  -0.00028  -0.00184  -0.00212   2.10896
    D1       -0.00000   0.00000   0.00000   0.00000   0.00000   0.00000
    D2        3.14159   0.00000   0.00000   0.00000   0.00000   3.14159
    D3        3.14159   0.00000   0.00000   0.00000   0.00000   3.14159
    D4        0.00000  -0.00000   0.00000  -0.00000  -0.00000   0.00000
    D5        0.00000  -0.00000   0.00000  -0.00000  -0.00000   0.00000
    D6        3.14159  -0.00000   0.00000  -0.00000   0.00000   3.14159
    D7        3.14159  -0.00000   0.00000  -0.00000   0.00000   3.14159
    D8       -0.00000   0.00000   0.00000   0.00000   0.00000   0.00000
[...]
    R9        2.05177   0.00002   0.00000   0.00006   0.00006   2.05184
   R10        2.61658   0.00009   0.00000   0.00018   0.00018   2.61676
   R11        2.05177   0.00002   0.00000   0.00006   0.00006   2.05184
   R12        2.04754  -0.00002   0.00000  -0.00008  -0.00008   2.04747
    A1        2.10936   0.00004   0.00000   0.00024   0.00024   2.10960
    A2        2.06947  -0.00003   0.00000  -0.00028  -0.00028   2.06919
    A3        2.10436  -0.00000   0.00000   0.00004   0.00004   2.10439
    A4        2.10934   0.00004   0.00000   0.00023   0.00023   2.10957
    A5        2.06948  -0.00003   0.00000  -0.00028  -0.00028   2.06920
    A6        2.10437  -0.00000   0.00000   0.00004   0.00004   2.10441
    A7        2.06449  -0.00008   0.00000  -0.00048  -0.00048   2.06401
    A8        2.10935   0.00004   0.00000   0.00024   0.00024   2.10959
    A9        2.10934   0.00004   0.00000   0.00024   0.00024   2.10958
   A10        2.10936   0.00004   0.00000   0.00024   0.00024   2.10960
   A11        2.10436  -0.00000   0.00000   0.00004   0.00004   2.10439
   A12        2.06947  -0.00003   0.00000  -0.00028  -0.00028   2.06919
   A13        2.10934   0.00004   0.00000   0.00023   0.00023   2.10957
   A14        2.06948  -0.00003   0.00000  -0.00028  -0.00028   2.06920
   A15        2.10437  -0.00000   0.00000   0.00004   0.00004   2.10441
   A16        2.06449  -0.00008   0.00000  -0.00048  -0.00048   2.06401
   A17        2.10934   0.00004   0.00000   0.00024   0.00024   2.10958
   A18        2.10935   0.00004   0.00000   0.00024   0.00024   2.10959
    D1       -0.00000   0.00000   0.00000   0.00000   0.00000   0.00000
    D2        3.14159   0.00000   0.00000  -0.00000   0.00000   3.14159
    D3        3.14159  -0.00000   0.00000  -0.00000   0.00000   3.14159
    D4        0.00000  -0.00000   0.00000  -0.00000  -0.00000   0.00000
    D5        0.00000  -0.00000   0.00000  -0.00000  -0.00000   0.00000
    D6        3.14159  -0.00000   0.00000  -0.00000   0.00000   3.14159
    D7        3.14159   0.00000   0.00000   0.00000   0.00000   3.14159
    D8       -0.00000   0.00000   0.00000   0.00000   0.00000   0.00000
    D9        0.00000  -0.00000   0.00000  -0.00000  -0.00000   0.00000
   D10        3.14159  -0.00000   0.00000  -0.00000   0.00000   3.14159
   D11        3.14159   0.00000   0.00000   0.00000   0.00000   3.14159
   D12       -0.00000   0.00000   0.00000   0.00000   0.00000   0.00000
   D13       -0.00000   0.00000   0.00000   0.00000   0.00000   0.00000
   D14        3.14159   0.00000   0.00000   0.00000   0.00000  -3.14159
   D15        3.14159  -0.00000   0.00000  -0.00000   0.00000   3.14159
   D16        0.00000  -0.00000   0.00000  -0.00000  -0.00000   0.00000
   D17       -0.00000   0.00000   0.00000   0.00000   0.00000   0.00000
   D18        3.14159   0.00000   0.00000  -0.00000   0.00000   3.14159
   D19        3.14159   0.00000   0.00000  -0.00000   0.00000   3.14159
   D20        0.00000  -0.00000   0.00000  -0.00000  -0.00000   0.00000
   D21       -0.00000   0.00000   0.00000   0.00000   0.00000   0.00000
   D22        3.14159  -0.00000   0.00000  -0.00000   0.00000   3.14159
   D23        3.14159   0.00000   0.00000   0.00000   0.00000   3.14159
   D24        0.00000  -0.00000   0.00000  -0.00000  -0.00000   0.00000
         Item               Value     Threshold  Converged?
 Maximum Force            0.000095     0.000450     YES
 RMS     Force            0.000035     0.000300     YES
 Maximum Displacement     0.000605     0.001800     YES
 RMS     Displacement     0.000216     0.001200     YES
 Predicted change in Energy=-1.326570D-07
 Optimization completed.
    -- Stationary point found.
                           ----------------------------
                           !   Optimized Parameters   !
                           ! (Angstroms and Degrees)  !
 --------------------------                            --------------------------
 ! Name  Definition              Value          Derivative Info.                !
 --------------------------------------------------------------------------------
 ! R1    R(1,2)                  1.4465         -DE/DX =    0.0                 !
 ! R2    R(1,6)                  1.3847         -DE/DX =    0.0001              !
 ! R3    R(1,7)                  1.0858         -DE/DX =    0.0                 !
 ! R4    R(2,3)                  1.3846         -DE/DX =    0.0001              !
 ! R5    R(2,8)                  1.0858         -DE/DX =    0.0                 !
 ! R6    R(3,4)                  1.3847         -DE/DX =    0.0001              !
 ! R7    R(3,9)                  1.0835         -DE/DX =    0.0                 !
 ! R8    R(4,5)                  1.4465         -DE/DX =    0.0                 !
 ! R9    R(4,10)                 1.0858         -DE/DX =    0.0                 !
 ! R10   R(5,6)                  1.3846         -DE/DX =    0.0001              !
 ! R11   R(5,11)                 1.0858         -DE/DX =    0.0                 !
 ! R12   R(6,12)                 1.0835         -DE/DX =    0.0                 !
 ! A1    A(2,1,6)              120.8572         -DE/DX =    0.0                 !
 ! A2    A(2,1,7)              118.5721         -DE/DX =    0.0                 !
 ! A3    A(6,1,7)              120.5707         -DE/DX =    0.0                 !
 ! A4    A(1,2,3)              120.8562         -DE/DX =    0.0                 !
 ! A5    A(1,2,8)              118.5722         -DE/DX =    0.0                 !
 ! A6    A(3,2,8)              120.5715         -DE/DX =    0.0                 !
 ! A7    A(2,3,4)              118.2865         -DE/DX =   -0.0001              !
 ! A8    A(2,3,9)              120.8571         -DE/DX =    0.0                 !
 ! A9    A(4,3,9)              120.8564         -DE/DX =    0.0                 !
 ! A10   A(3,4,5)              120.8572         -DE/DX =    0.0                 !
 ! A11   A(3,4,10)             120.5707         -DE/DX =    0.0                 !
 ! A12   A(5,4,10)             118.5721         -DE/DX =    0.0                 !
 ! A13   A(4,5,6)              120.8562         -DE/DX =    0.0                 !
 ! A14   A(4,5,11)             118.5722         -DE/DX =    0.0                 !
 ! A15   A(6,5,11)             120.5715         -DE/DX =    0.0                 !
 ! A16   A(1,6,5)              118.2865         -DE/DX =   -0.0001              !
 ! A17   A(1,6,12)             120.8564         -DE/DX =    0.0                 !
 ! A18   A(5,6,12)             120.8571         -DE/DX =    0.0                 !
 ! D1    D(6,1,2,3)              0.0            -DE/DX =    0.0                 !
 ! D2    D(6,1,2,8)            180.0            -DE/DX =    0.0                 !
 ! D3    D(7,1,2,3)            180.0            -DE/DX =    0.0                 !
 ! D4    D(7,1,2,8)              0.0            -DE/DX =    0.0                 !
 ! D5    D(2,1,6,5)              0.0            -DE/DX =    0.0                 !
 ! D6    D(2,1,6,12)           180.0            -DE/DX =    0.0                 !
 ! D7    D(7,1,6,5)            180.0            -DE/DX =    0.0                 !
 ! D8    D(7,1,6,12)             0.0            -DE/DX =    0.0                 !
 ! D9    D(1,2,3,4)              0.0            -DE/DX =    0.0                 !
 ! D10   D(1,2,3,9)            180.0            -DE/DX =    0.0                 !
 ! D11   D(8,2,3,4)            180.0            -DE/DX =    0.0                 !
 ! D12   D(8,2,3,9)              0.0            -DE/DX =    0.0                 !
 ! D13   D(2,3,4,5)              0.0            -DE/DX =    0.0                 !
 ! D14   D(2,3,4,10)          -180.0            -DE/DX =    0.0                 !
 ! D15   D(9,3,4,5)            180.0            -DE/DX =    0.0                 !
 ! D16   D(9,3,4,10)             0.0            -DE/DX =    0.0                 !
 ! D17   D(3,4,5,6)              0.0            -DE/DX =    0.0                 !
 ! D18   D(3,4,5,11)           180.0            -DE/DX =    0.0                 !
 ! D19   D(10,4,5,6)           180.0            -DE/DX =    0.0                 !
 ! D20   D(10,4,5,11)            0.0            -DE/DX =    0.0                 !
 ! D21   D(4,5,6,1)              0.0            -DE/DX =    0.0                 !
 ! D22   D(4,5,6,12)           180.0            -DE/DX =    0.0                 !
 ! D23   D(11,5,6,1)           180.0            -DE/DX =    0.0                 !
 ! D24   D(11,5,6,12)            0.0            -DE/DX =    0.0                 !
 --------------------------------------------------------------------------------
 GradGradGradGradGradGradGradGradGradGradGradGradGradGradGradGradGradGrad

 Leave Link  103 at Thu Jan 30 14:39:28 2025, MaxMem=   104857600 cpu:               0.0 elap:               0.0
 (Enter /sw/cluster/pub/apps//g16/l9999.exe)

 ----------------------------------------------------------------------

 Electric dipole moment (input orientation):
 (Debye = 10**-18 statcoulomb cm , SI units = C m)
                  (au)            (Debye)         (10**-30 SI)
   Tot        0.000000D+00      0.000000D+00      0.000000D+00
   x          0.000000D+00      0.000000D+00      0.000000D+00
   y          0.000000D+00      0.000000D+00      0.000000D+00
   z          0.000000D+00      0.000000D+00      0.000000D+00

 Dipole polarizability, Alpha (input orientation).
 (esu units = cm**3 , SI units = C**2 m**2 J**-1)
 Alpha(0;0):
               (au)            (10**-24 esu)      (10**-40 SI)
   iso        0.580373D+02      0.860024D+01      0.956906D+01
   aniso      0.402472D+02      0.596402D+01      0.663587D+01
   xx         0.672275D+02      0.996209D+01      0.110843D+02
   yx        -0.192240D-02     -0.284870D-03     -0.316961D-03
   yy         0.752734D+02      0.111544D+02      0.124109D+02
   zx         0.000000D+00      0.000000D+00      0.000000D+00
   zy         0.000000D+00      0.000000D+00      0.000000D+00
   zz         0.316110D+02      0.468427D+01      0.521196D+01

 ----------------------------------------------------------------------

 Dipole orientation:
     6          0.45198365          1.78553547          1.87641897
     6          0.61719900          2.43609754         -0.77333214
     6          0.16372523          0.64469448         -2.62581994
     6         -0.45198374         -1.78553585         -1.87641865
     6         -0.61719909         -2.43609787          0.77333228
     6         -0.16372536         -0.64469498          2.62582014
     1          0.82151493          3.24525872          3.27013139
     1          1.10535214          4.36291342         -1.28211454
     1          0.28747621          1.13198384         -4.61068135
     1         -0.82151501         -3.24525904         -3.27013098
     1         -1.10535220         -4.36291366          1.28211463
     1         -0.28747633         -1.13198430          4.61068155

 Electric dipole moment (dipole orientation):
 (Debye = 10**-18 statcoulomb cm , SI units = C m)
                  (au)            (Debye)         (10**-30 SI)
   Tot        0.000000D+00      0.000000D+00      0.000000D+00
   x          0.000000D+00      0.000000D+00      0.000000D+00
   y          0.000000D+00      0.000000D+00      0.000000D+00
   z          0.000000D+00      0.000000D+00      0.000000D+00

 Dipole polarizability, Alpha (dipole orientation).
 (esu units = cm**3 , SI units = C**2 m**2 J**-1)
 Alpha(0;0):
               (au)            (10**-24 esu)      (10**-40 SI)
   iso        0.580373D+02      0.860024D+01      0.956906D+01
   aniso      0.402472D+02      0.596402D+01      0.663587D+01
   xx         0.342142D+02      0.507002D+01      0.564116D+01
   yx         0.102771D+02      0.152291D+01      0.169446D+01
   yy         0.721842D+02      0.106966D+02      0.119016D+02
   zx         0.465249D+00      0.689428D-01      0.767092D-01
   zy         0.185957D+01      0.275560D+00      0.306602D+00
   zz         0.677135D+02      0.100341D+02      0.111645D+02

 ----------------------------------------------------------------------
 1\1\GINC-N11\Freq\UPBE1PBE\6-311++G(d,p)\C6H6(1+,2)\UNKNOWN\30-Jan-202
 5\0\\#P Geom=AllCheck Guess=TCheck SCRF=Check GenChk UPBE1PBE/6-311++G
 (d,p) Freq\\benzene SP\\1,2\C,-0.7232287287,1.1886472076,0.0000000031\
 C,0.7232467654,1.1886567437,-0.000000003\C,1.43341275,0.0000136582,0.0
 000000013\C,0.7232285133,-1.1886473661,0.0000000013\C,-0.7232468835,-1
 .1886569018,-0.0000000012\C,-1.4334129173,-0.0000138971,-0.0000000014\
 H,-1.2425110082,2.1421692445,-0.0000000011\H,1.2425188417,2.1421832811
 ,0.0000000011\H,2.5169268346,0.0000048172,-0.0000000012\H,1.2425107516
 ,-2.1421693615,0.0000000007\H,-1.2425189224,-2.1421833959,-0.000000000
 7\H,-2.5169270015,-0.0000050361,0.0000000011\\Version=ES64L-G16RevA.03
 \HF=-231.6837442\S2=0.771003\S2-1=0.\S2A=0.750258\RMSD=5.449e-09\RMSF=
 6.346e-05\ZeroPoint=0.0967189\Thermal=0.1015058\Dipole=0.,0.0000002,0.
 \DipoleDeriv=0.0654881,-0.0870732,0.,-0.0420115,0.4913604,0.,0.,0.,0.0
 785525,0.0650586,0.0871381,0.,0.0420882,0.491187,0.,0.,0.,0.0784756,0.
 060344,-0.0000542,0.,-0.0000666,-0.8364426,0.,0.,0.,-0.0803292,0.06548
 83,-0.0870733,0.,-0.0420112,0.4913603,0.,0.,0.,0.0785524,0.0650588,0.0
 871382,0.,0.0420879,0.4911869,0.,0.,0.,0.0784756,0.060344,-0.0000542,0
 .,-0.0000659,-0.8364426,0.,0.,0.,-0.0803292,0.1033922,0.0056032,0.,-0.
 0046517,0.120532,0.,0.,0.,0.131954,0.1033866,-0.0056113,0.,0.0046484,0
 .1205317,0.,0.,0.,0.1319684,0.1023303,-0.0000026,0.,-0.0000073,0.11283
 16,0.,0.,0.,0.1593787,0.1033922,0.0056032,0.,-0.0046516,0.120532,0.,0.
 ,0.,0.131954,0.1033866,-0.0056113,0.,0.0046484,0.1205316,0.,0.,0.,0.13
 19684,0.1023303,-0.0000026,0.,-0.0000072,0.1128316,0.,0.,0.,0.1593787\
 Polar=67.2274912,-0.0019224,75.2734319,0.,0.,31.6110421\Quadrupole=2.9
 745218,4.8057235,-7.7802453,-0.0003813,0.,0.\PG=CS [SG(C6H6)]\NImag=1\
 \0.57694860,-0.04498943,0.71489124,0.,0.,0.13518858,-0.32273150,-0.028
 83104,0.,0.57708400,0.02884369,-0.08702302,0.,0.04488469,0.71500013,0.
 ,0.,-0.06185394,0.,0.,0.13517725,-0.02571525,0.03059060,0.,-0.19656492
 ,0.13762857,0.,0.77950609,-0.08722960,-0.07835015,0.,-0.02017795,-0.19
 570389,0.,-0.00003347,0.37373024,0.,0.,0.00042654,0.,0.,-0.05308373,0.
 ,0.,0.10680531,0.00394389,0.03059074,0.,0.10999024,-0.04884625,0.,-0.1
 9655034,0.02037041,0.,0.57694885,0.03059072,0.02425866,0.,0.04881429,-
 0.09317205,0.,-0.13760072,-0.19556967,0.,-0.04498939,0.71489143,0.,0.,
 -0.00123673,0.,0.,-0.00074733,0.,0.,-0.05308668,0.,0.,0.13518855,0.109
 99024,0.04881430,0.,0.00380248,-0.03049039,0.,-0.02570211,0.08706036,0
 .,-0.32273165,-0.02883100,0.,0.57708425,-0.04884623,-0.09317204,0.,-0.
 03049037,0.02420221,0.,-0.03059470,-0.07826622,0.,0.02884365,-0.087023
 05,0.,0.04488466,0.71500031,0.,0.,-0.00074733,0.,0.,-0.00123045,0.,0.,
 0.00042696,0.,0.,-0.06185393,0.,0.,0.13517722,-0.19655028,-0.13760064,
 0.,-0.02570209,-0.03059471,0.,0.00264543,0.00000659,0.,-0.02571528,0.0
 3059058,0.,-0.19656497,0.13762864,0.,0.77950609,0.02037049,-0.19556954
 ,0.,0.08706038,-0.07826628,0.,0.00000655,0.25562823,0.,-0.08722958,-0.
 07835009,0.,-0.02017787,-0.19570402,0.,-0.00003365,0.37373024,0.,0.,-0
 .05308669,0.,0.,0.00042697,0.,0.,0.00999643,0.,0.,0.00042654,0.,0.,-0.
 05308372,0.,0.,0.10680531,-0.12486073,0.12280413,0.,-0.00962577,0.0269
 3952,0.,-0.00554230,0.00042109,0.,-0.00130295,-0.00156103,0.,-0.002417
 35,-0.00316428,0.,0.01307842,-0.01816805,0.,0.12884431,0.11994846,-0.2
 8652471,0.,-0.00561844,0.00757738,0.,-0.00145413,-0.00328469,0.,0.0013
 7363,0.00168331,0.,-0.00131143,-0.00586725,0.,0.01404447,-0.00889935,0
 .,-0.12780811,0.29424802,0.,0.,-0.04353158,0.,0.,0.00754722,0.,0.,0.00
 037682,0.,0.,-0.00122285,0.,0.,0.00703198,0.,0.,0.01447853,0.,0.,0.021
 22626,-0.00962500,-0.02693859,0.,-0.12485736,-0.12280367,0.,0.01307851
 ,0.01817136,0.,-0.00242001,0.00316256,0.,-0.00130242,0.00156129,0.,-0.
 00554197,-0.00042338,0.,0.00078198,0.00021823,0.,0.12884180,0.00562193
 ,0.00757896,0.,-0.11994981,-0.28652706,0.,-0.01404398,-0.00889808,0.,0
 .00130803,-0.00586925,0.,-0.00137170,0.00168246,0.,0.00145405,-0.00328
 612,0.,-0.00021819,0.00066430,0.,0.12780700,0.29425173,0.,0.,0.0075420
 2,0.,0.,-0.04353083,0.,0.,0.01447675,0.,0.,0.00703598,0.,0.,-0.0012231
 2,0.,0.,0.00037738,0.,0.,-0.00002321,0.,0.,0.02122976,0.00117813,0.002
 11921,0.,-0.00885646,-0.00183733,0.,-0.35313695,-0.00000022,0.,-0.0088
 5513,0.00183920,0.,0.00118114,-0.00212113,0.,0.00044539,0.00000287,0.,
 -0.00031249,-0.00026908,0.,0.00069380,-0.00004729,0.,0.36733964,0.0008
 0012,-0.00650716,0.,0.02779279,0.00460351,0.,0.00000258,-0.06061391,0.
 ,-0.02779180,0.00460370,0.,-0.00080140,-0.00650614,0.,0.00000020,0.003
 51360,0.,0.00130802,0.00021428,0.,-0.00019528,0.00086194,0.,-0.0000026
 1,0.05857696,0.,0.,0.00830582,0.,0.,0.00318360,0.,0.,-0.03976862,0.,0.
 ,0.00318019,0.,0.,0.00830237,0.,0.,-0.00142568,0.,0.,0.00000371,0.,0.,
 -0.00390605,0.,0.,0.02733296,-0.00130295,-0.00156102,0.,-0.00241735,-0
 .00316428,0.,0.01307842,-0.01816805,0.,-0.12486074,0.12280417,0.,-0.00
 962577,0.02693953,0.,-0.00554230,0.00042109,0.,0.00007144,0.00004030,0
 .,0.00059170,-0.00078878,0.,0.00069374,0.00019537,0.,0.12884432,0.0013
 7363,0.00168330,0.,-0.00131143,-0.00586725,0.,0.01404447,-0.00889937,0
 .,0.11994852,-0.28652479,0.,-0.00561844,0.00757737,0.,-0.00145413,-0.0
 0328467,0.,0.00004030,0.00003660,0.,0.00078875,-0.00070980,0.,0.000047
 35,0.00086191,0.,-0.12780815,0.29424811,0.,0.,-0.00122285,0.,0.,0.0070
 3199,0.,0.,0.01447853,0.,0.,-0.04353157,0.,0.,0.00754723,0.,0.,0.00037
 682,0.,0.,0.00134519,0.,0.,-0.00332810,0.,0.,-0.00390399,0.,0.,0.02122
 624,-0.00242001,0.00316256,0.,-0.00130242,0.00156129,0.,-0.00554197,-0
 .00042338,0.,-0.00962501,-0.02693860,0.,-0.12485737,-0.12280372,0.,0.0
 1307850,0.01817136,0.,0.00059170,0.00078875,0.,0.00007150,-0.00004024,
 0.,-0.00031252,-0.00130803,0.,0.00078198,0.00021823,0.,0.12884182,0.00
 130803,-0.00586925,0.,-0.00137170,0.00168245,0.,0.00145405,-0.00328611
 ,0.,0.00562193,0.00757896,0.,-0.11994986,-0.28652714,0.,-0.01404398,-0
 .00889810,0.,-0.00078878,-0.00070980,0.,-0.00004024,0.00003665,0.,0.00
 026898,0.00021426,0.,-0.00021818,0.00066431,0.,0.12780705,0.29425182,0
 .,0.,0.00703598,0.,0.,-0.00122312,0.,0.,0.00037738,0.,0.,0.00754202,0.
 ,0.,-0.04353082,0.,0.,0.01447675,0.,0.,-0.00332810,0.,0.,0.00134422,0.
 ,0.,0.00000520,0.,0.,-0.00002321,0.,0.,0.02122974,-0.00885514,0.001839
 19,0.,0.00118114,-0.00212112,0.,0.00044539,0.00000286,0.,0.00117814,0.
 00211922,0.,-0.00885645,-0.00183733,0.,-0.35313695,-0.00000020,0.,0.00
 069374,0.00004735,0.,-0.00031252,0.00026898,0.,-0.00005829,0.00000004,
 0.,-0.00031249,-0.00026908,0.,0.00069380,-0.00004729,0.,0.36733964,-0.
 02779180,0.00460370,0.,-0.00080140,-0.00650614,0.,0.00000020,0.0035136
 0,0.,0.00080012,-0.00650716,0.,0.02779279,0.00460352,0.,0.00000259,-0.
 06061391,0.,0.00019537,0.00086191,0.,-0.00130803,0.00021426,0.,0.00000
 004,0.00017704,0.,0.00130802,0.00021428,0.,-0.00019528,0.00086194,0.,-
 0.00000261,0.05857696,0.,0.,0.00318019,0.,0.,0.00830237,0.,0.,-0.00142
 568,0.,0.,0.00830582,0.,0.,0.00318360,0.,0.,-0.03976862,0.,0.,-0.00390
 398,0.,0.,0.00000520,0.,0.,-0.00130950,0.,0.,0.00000371,0.,0.,-0.00390
 605,0.,0.,0.02733296\\-0.00010469,-0.00002665,0.,0.00010284,-0.0000249
 5,0.,-0.00021907,-0.00000243,0.,0.00010466,0.00002665,0.,-0.00010281,0
 .00002495,0.,0.00021907,0.00000235,0.,-0.00000317,-0.00002434,0.,0.000
 00332,-0.00002429,0.,0.00002033,0.00000011,0.,0.00000315,0.00002438,0.
 ,-0.00000330,0.00002433,0.,-0.00002033,-0.00000010,0.\\\@


 HEAVEN'S NET CASTS WIDE.
 THOUGH ITS MESHES ARE COARSE, NOTHING SLIPS THROUGH.

                                          -- LAO-TSU
 Job cpu time:       0 days  0 hours  4 minutes 37.3 seconds.
 Elapsed time:       0 days  0 hours  4 minutes 37.6 seconds.
 File lengths (MBytes):  RWF=     76 Int=      0 D2E=      0 Chk=      5 Scr=      1
 Normal termination of Gaussian 16 at Thu Jan 30 14:39:28 2025.
