 Entering Gaussian System, Link 0=g16
 Initial command:
 /sw/cluster/pub/apps//g16/l1.exe "/data/natrosa/28485/Gau-5865.inp" -scrdir="/data/natrosa/28485/"
 Entering Link 1 = /sw/cluster/pub/apps//g16/l1.exe PID=      5866.
  
 Copyright (c) 1988,1990,1992,1993,1995,1998,2003,2009,2016,
            Gaussian, Inc.  All Rights Reserved.
  
 This is part of the Gaussian(R) 16 program.  It is based on
 the Gaussian(R) 09 system (copyright 2009, Gaussian, Inc.),
 the Gaussian(R) 03 system (copyright 2003, Gaussian, Inc.),
 the Gaussian(R) 98 system (copyright 1998, Gaussian, Inc.),
 the Gaussian(R) 94 system (copyright 1995, Gaussian, Inc.),
 the Gaussian 92(TM) system (copyright 1992, Gaussian, Inc.),
 the Gaussian 90(TM) system (copyright 1990, Gaussian, Inc.),
 the Gaussian 88(TM) system (copyright 1988, Gaussian, Inc.),
 the Gaussian 86(TM) system (copyright 1986, Carnegie Mellon
 University), and the Gaussian 82(TM) system (copyright 1983,
 Carnegie Mellon University). Gaussian is a federally registered
 trademark of Gaussian, Inc.
  
 This software contains proprietary and confidential information,
 including trade secrets, belonging to Gaussian, Inc.
  
 This software is provided under written license and may be
 used, copied, transmitted, or stored only in accord with that
 written license.
  
 The following legend is applicable only to US Government
 contracts under FAR:
  
                    RESTRICTED RIGHTS LEGEND
  
 Use, reproduction and disclosure by the US Government is
 subject to restrictions as set forth in subparagraphs (a)
 and (c) of the Commercial Computer Software - Restricted
 Rights clause in FAR 52.227-19.
  
 Gaussian, Inc.
 340 Quinnipiac St., Bldg. 40, Wallingford CT 06492
  
  
 ---------------------------------------------------------------
 Warning -- This program may not be used in any manner that
 competes with the business of Gaussian, Inc. or will provide
 assistance to any competitor of Gaussian, Inc.  The licensee
 of this program is prohibited from giving any competitor of
 Gaussian, Inc. access to this program.  By using this program,
 the user acknowledges that Gaussian, Inc. is engaged in the
 business of creating and licensing software in the field of
 computational chemistry and represents and warrants to the
 licensee that it is not a competitor of Gaussian, Inc. and that
 it will not use this program in any manner prohibited above.
 ---------------------------------------------------------------
  

 Cite this work as:
 Gaussian 16, Revision A.03,
 M. J. Frisch, G. W. Trucks, H. B. Schlegel, G. E. Scuseria, 
 M. A. Robb, J. R. Cheeseman, G. Scalmani, V. Barone, 
 G. A. Petersson, H. Nakatsuji, X. Li, M. Caricato, A. V. Marenich, 
 J. Bloino, B. G. Janesko, R. Gomperts, B. Mennucci, H. P. Hratchian, 
 J. V. Ortiz, A. F. Izmaylov, J. L. Sonnenberg, D. Williams-Young, 
 F. Ding, F. Lipparini, F. Egidi, J. Goings, B. Peng, A. Petrone, 
 T. Henderson, D. Ranasinghe, V. G. Zakrzewski, J. Gao, N. Rega, 
 G. Zheng, W. Liang, M. Hada, M. Ehara, K. Toyota, R. Fukuda, 
 J. Hasegawa, M. Ishida, T. Nakajima, Y. Honda, O. Kitao, H. Nakai, 
 T. Vreven, K. Throssell, J. A. Montgomery, Jr., J. E. Peralta, 
 F. Ogliaro, M. J. Bearpark, J. J. Heyd, E. N. Brothers, K. N. Kudin, 
 V. N. Staroverov, T. A. Keith, R. Kobayashi, J. Normand, 
 K. Raghavachari, A. P. Rendell, J. C. Burant, S. S. Iyengar, 
 J. Tomasi, M. Cossi, J. M. Millam, M. Klene, C. Adamo, R. Cammi, 
 J. W. Ochterski, R. L. Martin, K. Morokuma, O. Farkas, 
 J. B. Foresman, and D. J. Fox, Gaussian, Inc., Wallingford CT, 2016.
 
 ******************************************
 Gaussian 16:  ES64L-G16RevA.03 25-Dec-2016
                30-Jan-2025 
 ******************************************
 %chk=PFB-ANI.chk
 --------------------------------------------------------
 #p opt freq PBE1PBE/6-311++G(d,p) density=current nosymm
 --------------------------------------------------------
 1/18=20,19=15,26=3,38=1/1,3;
 2/9=110,12=2,15=1,17=6,18=5,40=1/2;
 3/5=4,6=6,7=1111,11=2,25=1,30=1,71=1,74=-13/1,2,3;
 4//1;
 5/5=2,38=5/2;
 6/7=2,8=2,9=2,10=2,22=-1,28=1/1;
 7/30=1/1,2,3,16;
 1/18=20,19=15,26=3/3(2);
 2/9=110,15=1/2;
 99//99;
 2/9=110,15=1/2;
 3/5=4,6=6,7=1111,11=2,25=1,30=1,71=1,74=-13/1,2,3;
 4/5=5,16=3,69=1/1;
 5/5=2,38=5/2;
 7/30=1/1,2,3,16;
 1/18=20,19=15,26=3/3(-5);
 2/9=110,15=1/2;
 6/7=2,8=2,9=2,10=2,19=2,22=-1,28=1/1;
 99/9=1/99;
 Leave Link    1 at Thu Jan 30 15:00:37 2025, MaxMem=           0 cpu:               0.0 elap:               0.0
 (Enter /sw/cluster/pub/apps//g16/l101.exe)
 ------
 PFB SP
 ------
 Symbolic Z-matrix:
 Charge = -1 Multiplicity = 2
 C                     1.19153   0.68536   0. 
 C                     1.20712  -0.69698   0. 
 C                     0.00229  -1.37476  0. 
 C                    -1.20604  -0.69433   0. 
 C                    -1.20157   0.69381   0. 
 C                    -0.00178   1.39191  0. 
 H                     2.1448   -1.23807   0. 
 F                    -0.01435  -2.70478   0. 
 F                    -2.35775  -1.35084   0. 
 F                    -2.34781   1.35502  0. 
 F                    -0.00872   2.7176    0. 
 F                     2.33522   1.36446   0. 
 
 ITRead=  0  0  0  0  0  0  0  0  0  0  0  0
 MicOpt= -1 -1 -1 -1 -1 -1 -1 -1 -1 -1 -1 -1
 NAtoms=     12 NQM=       12 NQMF=       0 NMMI=      0 NMMIF=      0
                NMic=       0 NMicF=      0.
                    Isotopes and Nuclear Properties:
 (Nuclear quadrupole moments (NQMom) in fm**2, nuclear magnetic moments (NMagM)
  in nuclear magnetons)

  Atom         1           2           3           4           5           6           7           8           9          10
 IAtWgt=          12          12          12          12          12          12           1          19          19          19
 AtmWgt=  12.0000000  12.0000000  12.0000000  12.0000000  12.0000000  12.0000000   1.0078250  18.9984032  18.9984032  18.9984032
 NucSpn=           0           0           0           0           0           0           1           1           1           1
 AtZEff=  -0.0000000  -0.0000000  -0.0000000  -0.0000000  -0.0000000  -0.0000000  -0.0000000  -0.0000000  -0.0000000  -0.0000000
 NQMom=    0.0000000   0.0000000   0.0000000   0.0000000   0.0000000   0.0000000   0.0000000   0.0000000   0.0000000   0.0000000
 NMagM=    0.0000000   0.0000000   0.0000000   0.0000000   0.0000000   0.0000000   2.7928460   2.6288670   2.6288670   2.6288670
 AtZNuc=   6.0000000   6.0000000   6.0000000   6.0000000   6.0000000   6.0000000   1.0000000   9.0000000   9.0000000   9.0000000

  Atom        11          12
 IAtWgt=          19          19
 AtmWgt=  18.9984032  18.9984032
 NucSpn=           1           1
 AtZEff=  -0.0000000  -0.0000000
 NQMom=    0.0000000   0.0000000
 NMagM=    2.6288670   2.6288670
 AtZNuc=   9.0000000   9.0000000
 Leave Link  101 at Thu Jan 30 15:00:37 2025, MaxMem=   104857600 cpu:               0.0 elap:               0.0
 (Enter /sw/cluster/pub/apps//g16/l103.exe)

 GradGradGradGradGradGradGradGradGradGradGradGradGradGradGradGradGradGrad
 Berny optimization.
 Initialization pass.
                           ----------------------------
                           !    Initial Parameters    !
                           ! (Angstroms and Degrees)  !
 --------------------------                            --------------------------
 ! Name  Definition              Value          Derivative Info.                !
 --------------------------------------------------------------------------------
 ! R1    R(1,2)                  1.3824         estimate D2E/DX2                !
 ! R2    R(1,6)                  1.3868         estimate D2E/DX2                !
 ! R3    R(1,12)                 1.3301         estimate D2E/DX2                !
 ! R4    R(2,3)                  1.3824         estimate D2E/DX2                !
 ! R5    R(2,7)                  1.0826         estimate D2E/DX2                !
 ! R6    R(3,4)                  1.3867         estimate D2E/DX2                !
 ! R7    R(3,8)                  1.3301         estimate D2E/DX2                !
 ! R8    R(4,5)                  1.3881         estimate D2E/DX2                !
 ! R9    R(4,9)                  1.3257         estimate D2E/DX2                !
 ! R10   R(5,6)                  1.3881         estimate D2E/DX2                !
 ! R11   R(5,10)                 1.3233         estimate D2E/DX2                !
 ! R12   R(6,11)                 1.3257         estimate D2E/DX2                !
 ! A1    A(2,1,6)              121.2751         estimate D2E/DX2                !
 ! A2    A(2,1,12)             120.0552         estimate D2E/DX2                !
 ! A3    A(6,1,12)             118.6696         estimate D2E/DX2                !
 ! A4    A(1,2,3)              118.7142         estimate D2E/DX2                !
 ! A5    A(1,2,7)              120.6335         estimate D2E/DX2                !
 ! A6    A(3,2,7)              120.6523         estimate D2E/DX2                !
 ! A7    A(2,3,4)              121.2555         estimate D2E/DX2                !
 ! A8    A(2,3,8)              120.0769         estimate D2E/DX2                !
 ! A9    A(4,3,8)              118.6676         estimate D2E/DX2                !
 ! A10   A(3,4,5)              119.1997         estimate D2E/DX2                !
 ! A11   A(3,4,9)              120.9311         estimate D2E/DX2                !
 ! A12   A(5,4,9)              119.8692         estimate D2E/DX2                !
 ! A13   A(4,5,6)              120.3776         estimate D2E/DX2                !
 ! A14   A(4,5,10)             119.7939         estimate D2E/DX2                !
 ! A15   A(6,5,10)             119.8285         estimate D2E/DX2                !
 ! A16   A(1,6,5)              119.1779         estimate D2E/DX2                !
 ! A17   A(1,6,11)             120.929          estimate D2E/DX2                !
 ! A18   A(5,6,11)             119.8931         estimate D2E/DX2                !
 ! D1    D(6,1,2,3)              0.0            estimate D2E/DX2                !
 ! D2    D(6,1,2,7)            180.0            estimate D2E/DX2                !
 ! D3    D(12,1,2,3)           180.0            estimate D2E/DX2                !
 ! D4    D(12,1,2,7)             0.0            estimate D2E/DX2                !
 ! D5    D(2,1,6,5)              0.0            estimate D2E/DX2                !
 ! D6    D(2,1,6,11)           180.0            estimate D2E/DX2                !
 ! D7    D(12,1,6,5)           180.0            estimate D2E/DX2                !
 ! D8    D(12,1,6,11)            0.0            estimate D2E/DX2                !
 ! D9    D(1,2,3,4)              0.0            estimate D2E/DX2                !
 ! D10   D(1,2,3,8)            180.0            estimate D2E/DX2                !
 ! D11   D(7,2,3,4)            180.0            estimate D2E/DX2                !
 ! D12   D(7,2,3,8)              0.0            estimate D2E/DX2                !
 ! D13   D(2,3,4,5)              0.0            estimate D2E/DX2                !
 ! D14   D(2,3,4,9)            180.0            estimate D2E/DX2                !
 ! D15   D(8,3,4,5)            180.0            estimate D2E/DX2                !
 ! D16   D(8,3,4,9)              0.0            estimate D2E/DX2                !
 ! D17   D(3,4,5,6)              0.0            estimate D2E/DX2                !
 ! D18   D(3,4,5,10)           180.0            estimate D2E/DX2                !
 ! D19   D(9,4,5,6)            180.0            estimate D2E/DX2                !
 ! D20   D(9,4,5,10)             0.0            estimate D2E/DX2                !
 ! D21   D(4,5,6,1)              0.0            estimate D2E/DX2                !
 ! D22   D(4,5,6,11)           180.0            estimate D2E/DX2                !
 ! D23   D(10,5,6,1)           180.0            estimate D2E/DX2                !
 ! D24   D(10,5,6,11)            0.0            estimate D2E/DX2                !
 --------------------------------------------------------------------------------
 Trust Radius=3.00D-01 FncErr=1.00D-07 GrdErr=1.00D-06 EigMax=2.50D+02 EigMin=1.00D-04
 Number of steps in this run=     64 maximum allowed number of steps=    100.
 GradGradGradGradGradGradGradGradGradGradGradGradGradGradGradGradGradGrad

 Leave Link  103 at Thu Jan 30 15:00:37 2025, MaxMem=   104857600 cpu:               0.0 elap:               0.0
 (Enter /sw/cluster/pub/apps//g16/l202.exe)
                          Input orientation:                          
 ---------------------------------------------------------------------
 Center     Atomic      Atomic             Coordinates (Angstroms)
 Number     Number       Type             X           Y           Z
 ---------------------------------------------------------------------
      1          6           0        1.191533    0.685362    0.000000
      2          6           0        1.207116   -0.696977    0.000000
      3          6           0        0.002291   -1.374757   -0.000000
      4          6           0       -1.206045   -0.694328    0.000000
      5          6           0       -1.201570    0.693813    0.000000
      6          6           0       -0.001780    1.391908   -0.000000
      7          1           0        2.144796   -1.238075    0.000000
      8          9           0       -0.014349   -2.704782    0.000000
      9          9           0       -2.357753   -1.350838    0.000000
     10          9           0       -2.347807    1.355023   -0.000000
     11          9           0       -0.008716    2.717605    0.000000
     12          9           0        2.335219    1.364462    0.000000
 ---------------------------------------------------------------------
                    Distance matrix (angstroms):
                    1          2          3          4          5
     1  C    0.000000
     2  C    1.382426   0.000000
     3  C    2.378736   1.382386   0.000000
     4  C    2.766211   2.413163   1.386743   0.000000
     5  C    2.393118   2.781379   2.393379   1.388149   0.000000
     6  C    1.386796   2.413476   2.766667   2.408866   1.388104
     7  H    2.146699   1.082603   2.146860   3.394671   3.863982
     8  F    3.598226   2.350162   1.330130   2.337106   3.599992
     9  F    4.091887   3.624338   2.360165   1.325683   2.348905
    10  F    3.602135   4.104654   3.602035   2.345946   1.323276
    11  F    2.360214   3.624585   4.092376   3.615921   2.349177
    12  F    1.330111   2.349925   3.598038   4.096238   3.599812
                    6          7          8          9         10
     6  C    0.000000
     7  H    3.394789   0.000000
     8  F    4.096709   2.610199   0.000000
     9  F    3.615696   4.503960   2.706420   0.000000
    10  F    2.346317   5.187257   4.682632   2.705879   0.000000
    11  F    1.325715   4.503889   5.422390   4.697893   2.707023
    12  F    2.337160   2.609495   4.698853   5.421885   4.683036
                   11         12
    11  F    0.000000
    12  F    2.706479   0.000000
 Symmetry turned off by external request.
 Stoichiometry    C6HF5(1-,2)
 Framework group  CS[SG(C6HF5)]
 Deg. of freedom    21
 Full point group                 CS      NOp   2
 Rotational constants (GHZ):           1.4886064           1.0352938           0.6106204
 Leave Link  202 at Thu Jan 30 15:00:37 2025, MaxMem=   104857600 cpu:               0.0 elap:               0.0
 (Enter /sw/cluster/pub/apps//g16/l301.exe)
 Standard basis: 6-311++G(d,p) (5D, 7F)
 Ernie: Thresh=  0.10000D-02 Tol=  0.10000D-05 Strict=F.
   249 basis functions,   405 primitive gaussians,   260 cartesian basis functions
    42 alpha electrons       41 beta electrons
       nuclear repulsion energy       625.1356942200 Hartrees.
 IExCor= 1009 DFT=T Ex+Corr=PBE1PBE ExCW=0 ScaHFX=  0.250000
 ScaDFX=  0.750000  0.750000  1.000000  1.000000 ScalE2=  1.000000  1.000000
 IRadAn=      5 IRanWt=     -1 IRanGd=            0 ICorTp=0 IEmpDi=  4
 NAtoms=   12 NActive=   12 NUniq=   12 SFac= 1.00D+00 NAtFMM=   60 NAOKFM=F Big=F
 Integral buffers will be    131072 words long.
 Raffenetti 2 integral format.
 Two-electron integral symmetry is turned off.
 Leave Link  301 at Thu Jan 30 15:00:37 2025, MaxMem=   104857600 cpu:               0.0 elap:               0.0
 (Enter /sw/cluster/pub/apps//g16/l302.exe)
 NPDir=0 NMtPBC=     1 NCelOv=     1 NCel=       1 NClECP=     1 NCelD=      1
         NCelK=      1 NCelE2=     1 NClLst=     1 CellRange=     0.0.
 One-electron integrals computed using PRISM.
 NBasis=   249 RedAO= T EigKep=  1.81D-06  NBF=   249
 NBsUse=   249 1.00D-06 EigRej= -1.00D+00 NBFU=   249
 Precomputing XC quadrature grid using
 IXCGrd= 4 IRadAn=           5 IRanWt=          -1 IRanGd=           0 AccXCQ= 0.00D+00.
 Generated NRdTot=       0 NPtTot=           0 NUsed=           0 NTot=          32
 NSgBfM=   260   260   260   260   260 MxSgAt=    12 MxSgA2=    12.
 Leave Link  302 at Thu Jan 30 15:00:37 2025, MaxMem=   104857600 cpu:               0.1 elap:               0.1
 (Enter /sw/cluster/pub/apps//g16/l303.exe)
 DipDrv:  MaxL=1.
 Leave Link  303 at Thu Jan 30 15:00:37 2025, MaxMem=   104857600 cpu:               0.0 elap:               0.0
 (Enter /sw/cluster/pub/apps//g16/l401.exe)
 ExpMin= 3.60D-02 ExpMax= 1.14D+04 ExpMxC= 1.72D+03 IAcc=3 IRadAn=         5 AccDes= 0.00D+00
 Harris functional with IExCor= 1009 and IRadAn=       5 diagonalized for initial guess.
 HarFok:  IExCor= 1009 AccDes= 0.00D+00 IRadAn=         5 IDoV= 1 UseB2=F ITyADJ=14
 ICtDFT=  3500011 ScaDFX=  1.000000  1.000000  1.000000  1.000000
 FoFCou: FMM=F IPFlag=           0 FMFlag=      100000 FMFlg1=           0
         NFxFlg=           0 DoJE=T BraDBF=F KetDBF=T FulRan=T
         wScrn=  0.000000 ICntrl=       500 IOpCl=  0 I1Cent=   200000004 NGrid=           0
         NMat0=    1 NMatS0=      1 NMatT0=    0 NMatD0=    1 NMtDS0=    0 NMtDT0=    0
 Symmetry not used in FoFCou.
 Harris En= -728.014265365695    
 JPrj=0 DoOrth=F DoCkMO=F.
 Initial guess <Sx>= 0.0000 <Sy>= 0.0000 <Sz>= 0.5000 <S**2>= 0.7500 S= 0.5000
 Leave Link  401 at Thu Jan 30 15:00:38 2025, MaxMem=   104857600 cpu:               1.3 elap:               1.3
 (Enter /sw/cluster/pub/apps//g16/l502.exe)
 Two-electron integral symmetry not used.
 UHF open shell SCF:
 Using DIIS extrapolation, IDIIS=  1040.
 NGot=   104857600 LenX=   104719020 LenY=   104650979
 Requested convergence on RMS density matrix=1.00D-08 within 128 cycles.
 Requested convergence on MAX density matrix=1.00D-06.
 Requested convergence on             energy=1.00D-06.
 No special actions if energy rises.
 Fock matrices will be formed incrementally for  20 cycles.

 Cycle   1  Pass 1  IDiag  1:
 FoFJK:  IHMeth= 1 ICntrl=       0 DoSepK=F KAlg= 0 I1Cent=           0 FoldK=F
 IRaf= 920000000 NMat=       1 IRICut=       1 DoRegI=T DoRafI=F ISym2E= 0 IDoP0=0 IntGTp=1.
 FoFCou: FMM=F IPFlag=           0 FMFlag=      100000 FMFlg1=           0
         NFxFlg=           0 DoJE=F BraDBF=F KetDBF=F FulRan=T
         wScrn=  0.000000 ICntrl=         0 IOpCl=  1 I1Cent=           0 NGrid=           0
         NMat0=    1 NMatS0=      1 NMatT0=    0 NMatD0=    1 NMtDS0=    0 NMtDT0=    0
 Symmetry not used in FoFCou.
 E= -727.686747618542    
 DIIS: error= 2.82D-02 at cycle   1 NSaved=   1.
 NSaved= 1 IEnMin= 1 EnMin= -727.686747618542     IErMin= 1 ErrMin= 2.82D-02
 ErrMax= 2.82D-02  0.00D+00 EMaxC= 1.00D-01 BMatC= 8.07D-01 BMatP= 8.07D-01
 IDIUse=3 WtCom= 7.18D-01 WtEn= 2.82D-01
 Coeff-Com:  0.100D+01
 Coeff-En:   0.100D+01
 Coeff:      0.100D+01
 Gap=     0.051 Goal=   None    Shift=    0.000
 Gap=     0.304 Goal=   None    Shift=    0.000
 GapD=    0.051 DampG=0.500 DampE=0.500 DampFc=0.2500 IDamp=-1.
 Damping current iteration by 2.50D-01
 RMSDP=8.12D+00 MaxDP=7.08D+02              OVMax= 9.97D-01

 Cycle   2  Pass 1  IDiag  1:
 RMSU=  1.99D+00    CP:  3.00D+00
 E= -727.755847549470     Delta-E=       -0.069099930928 Rises=F Damp=T
 DIIS: error= 1.40D-02 at cycle   2 NSaved=   2.
 NSaved= 2 IEnMin= 2 EnMin= -727.755847549470     IErMin= 2 ErrMin= 1.40D-02
 ErrMax= 1.40D-02  0.00D+00 EMaxC= 1.00D-01 BMatC= 2.25D-01 BMatP= 8.07D-01
 IDIUse=3 WtCom= 8.60D-01 WtEn= 1.40D-01
 Coeff-Com: -0.794D+00 0.179D+01
 Coeff-En:   0.000D+00 0.100D+01
 Coeff:     -0.683D+00 0.168D+01
 Gap=     0.044 Goal=   None    Shift=    0.000
 Gap=     0.225 Goal=   None    Shift=    0.000
 RMSDP=3.92D+00 MaxDP=3.55D+02 DE=-6.91D-02 OVMax= 1.92D-01

 Cycle   3  Pass 1  IDiag  1:
 RMSU=  4.89D-01    CP:  3.00D+00  2.95D+00
 E= -727.841267628570     Delta-E=       -0.085420079100 Rises=F Damp=F
 DIIS: error= 9.06D-03 at cycle   3 NSaved=   3.
 NSaved= 3 IEnMin= 3 EnMin= -727.841267628570     IErMin= 3 ErrMin= 9.06D-03
 ErrMax= 9.06D-03  0.00D+00 EMaxC= 1.00D-01 BMatC= 5.90D-02 BMatP= 2.25D-01
 IDIUse=3 WtCom= 9.09D-01 WtEn= 9.06D-02
 Coeff-Com: -0.198D+00 0.604D+00 0.595D+00
 Coeff-En:   0.000D+00 0.000D+00 0.100D+01
 Coeff:     -0.180D+00 0.549D+00 0.632D+00
 Gap=    -0.009 Goal=   None    Shift=    0.000
 Gap=     0.281 Goal=   None    Shift=    0.000
 RMSDP=5.95D+00 MaxDP=5.32D+02 DE=-8.54D-02 OVMax= 9.99D-01

 Cycle   4  Pass 1  IDiag  1:
 RMSU=  9.52D-03    CP:  1.13D+00 -2.11D-03  3.04D-03
 E= -727.825414859896     Delta-E=        0.015852768675 Rises=F Damp=F
 DIIS: error= 1.12D-02 at cycle   4 NSaved=   4.
 NSaved= 4 IEnMin= 3 EnMin= -727.841267628570     IErMin= 3 ErrMin= 9.06D-03
 ErrMax= 1.12D-02  0.00D+00 EMaxC= 1.00D-01 BMatC= 1.02D-01 BMatP= 5.90D-02
 IDIUse=2 WtCom= 0.00D+00 WtEn= 1.00D+00
 Coeff-En:   0.000D+00 0.000D+00 0.647D+00 0.353D+00
 Coeff:      0.000D+00 0.000D+00 0.647D+00 0.353D+00
 Gap=     0.002 Goal=   None    Shift=    0.000
 Gap=     0.237 Goal=   None    Shift=    0.000
 RMSDP=3.76D-03 MaxDP=3.25D-01 DE= 1.59D-02 OVMax= 5.35D-02

 Cycle   5  Pass 1  IDiag  1:
 RMSU=  1.81D-03    CP:  1.08D+00 -2.07D-03  3.26D-03  8.28D-01
 E= -727.844116721869     Delta-E=       -0.018701861974 Rises=F Damp=F
 DIIS: error= 8.37D-03 at cycle   5 NSaved=   5.
 NSaved= 5 IEnMin= 5 EnMin= -727.844116721869     IErMin= 5 ErrMin= 8.37D-03
 ErrMax= 8.37D-03  0.00D+00 EMaxC= 1.00D-01 BMatC= 4.50D-02 BMatP= 5.90D-02
 IDIUse=3 WtCom= 9.16D-01 WtEn= 8.37D-02
 Coeff-Com: -0.105D+00 0.179D+00 0.418D+00-0.741D-02 0.515D+00
 Coeff-En:   0.000D+00 0.000D+00 0.449D+00 0.000D+00 0.551D+00
 Coeff:     -0.960D-01 0.164D+00 0.420D+00-0.679D-02 0.518D+00
 Gap=     0.007 Goal=   None    Shift=    0.000
 Gap=     0.228 Goal=   None    Shift=    0.000
 RMSDP=1.40D-03 MaxDP=8.65D-02 DE=-1.87D-02 OVMax= 2.43D-02

 Cycle   6  Pass 1  IDiag  1:
 RMSU=  9.21D-04    CP:  1.09D+00 -2.40D-03  3.91D-03  8.58D-01  1.33D+00
 E= -727.849822639777     Delta-E=       -0.005705917907 Rises=F Damp=F
 DIIS: error= 5.11D-03 at cycle   6 NSaved=   6.
 NSaved= 6 IEnMin= 6 EnMin= -727.849822639777     IErMin= 6 ErrMin= 5.11D-03
 ErrMax= 5.11D-03  0.00D+00 EMaxC= 1.00D-01 BMatC= 1.96D-02 BMatP= 4.50D-02
 IDIUse=3 WtCom= 9.49D-01 WtEn= 5.11D-02
 Coeff-Com: -0.137D+00 0.211D+00 0.239D+00-0.216D+00 0.376D+00 0.527D+00
 Coeff-En:   0.000D+00 0.000D+00 0.245D+00 0.000D+00 0.000D+00 0.755D+00
 Coeff:     -0.130D+00 0.200D+00 0.239D+00-0.205D+00 0.356D+00 0.539D+00
 Gap=     0.009 Goal=   None    Shift=    0.000
 Gap=     0.219 Goal=   None    Shift=    0.000
 RMSDP=1.38D-03 MaxDP=1.39D-01 DE=-5.71D-03 OVMax= 2.73D-02

 Cycle   7  Pass 1  IDiag  1:
 RMSU=  2.96D-04    CP:  1.08D+00 -2.62D-03  4.39D-03  8.23D-01  1.86D+00
                    CP:  1.59D+00
 E= -727.854139977443     Delta-E=       -0.004317337667 Rises=F Damp=F
 DIIS: error= 3.38D-03 at cycle   7 NSaved=   7.
 NSaved= 7 IEnMin= 7 EnMin= -727.854139977443     IErMin= 7 ErrMin= 3.38D-03
 ErrMax= 3.38D-03  0.00D+00 EMaxC= 1.00D-01 BMatC= 6.60D-03 BMatP= 1.96D-02
 IDIUse=3 WtCom= 9.66D-01 WtEn= 3.38D-02
 Coeff-Com: -0.470D-01 0.725D-01 0.598D-01-0.718D-01 0.847D-02-0.659D+00
 Coeff-Com:  0.164D+01
 Coeff-En:   0.000D+00 0.000D+00 0.000D+00 0.000D+00 0.000D+00 0.000D+00
 Coeff-En:   0.100D+01
 Coeff:     -0.454D-01 0.700D-01 0.578D-01-0.694D-01 0.818D-02-0.637D+00
 Coeff:      0.162D+01
 Gap=     0.018 Goal=   None    Shift=    0.000
 Gap=     0.202 Goal=   None    Shift=    0.000
 RMSDP=1.69D-03 MaxDP=1.72D-01 DE=-4.32D-03 OVMax= 3.56D-02

 Cycle   8  Pass 1  IDiag  1:
 RMSU=  3.42D-04    CP:  1.07D+00 -2.97D-03  4.96D-03  7.98D-01  2.45D+00
                    CP:  2.32D+00  2.66D+00
 E= -727.856336101870     Delta-E=       -0.002196124427 Rises=F Damp=F
 DIIS: error= 8.66D-04 at cycle   8 NSaved=   8.
 NSaved= 8 IEnMin= 8 EnMin= -727.856336101870     IErMin= 8 ErrMin= 8.66D-04
 ErrMax= 8.66D-04  0.00D+00 EMaxC= 1.00D-01 BMatC= 4.45D-04 BMatP= 6.60D-03
 IDIUse=3 WtCom= 9.91D-01 WtEn= 8.66D-03
 Coeff-Com:  0.108D-01-0.115D-01-0.118D-02 0.454D-01-0.792D-01-0.687D+00
 Coeff-Com:  0.959D+00 0.763D+00
 Coeff-En:   0.000D+00 0.000D+00 0.000D+00 0.000D+00 0.000D+00 0.000D+00
 Coeff-En:   0.000D+00 0.100D+01
 Coeff:      0.107D-01-0.114D-01-0.116D-02 0.450D-01-0.785D-01-0.681D+00
 Coeff:      0.951D+00 0.765D+00
 Gap=     0.023 Goal=   None    Shift=    0.000
 Gap=     0.194 Goal=   None    Shift=    0.000
 RMSDP=7.33D-04 MaxDP=7.53D-02 DE=-2.20D-03 OVMax= 1.29D-02

 Cycle   9  Pass 1  IDiag  1:
 RMSU=  1.53D-04    CP:  1.06D+00 -3.11D-03  5.19D-03  7.85D-01  2.68D+00
                    CP:  2.63D+00  3.00D+00  1.51D+00
 E= -727.856502720111     Delta-E=       -0.000166618241 Rises=F Damp=F
 DIIS: error= 1.99D-04 at cycle   9 NSaved=   9.
 NSaved= 9 IEnMin= 9 EnMin= -727.856502720111     IErMin= 9 ErrMin= 1.99D-04
 ErrMax= 1.99D-04  0.00D+00 EMaxC= 1.00D-01 BMatC= 1.42D-05 BMatP= 4.45D-04
 IDIUse=3 WtCom= 9.98D-01 WtEn= 1.99D-03
 Coeff-Com:  0.981D-02-0.141D-01 0.352D-02 0.530D-02 0.456D-02-0.884D-02
 Coeff-Com: -0.521D-01 0.147D+00 0.905D+00
 Coeff-En:   0.000D+00 0.000D+00 0.000D+00 0.000D+00 0.000D+00 0.000D+00
 Coeff-En:   0.000D+00 0.000D+00 0.100D+01
 Coeff:      0.979D-02-0.141D-01 0.351D-02 0.529D-02 0.455D-02-0.883D-02
 Coeff:     -0.520D-01 0.147D+00 0.905D+00
 Gap=     0.023 Goal=   None    Shift=    0.000
 Gap=     0.194 Goal=   None    Shift=    0.000
 RMSDP=6.84D-05 MaxDP=3.21D-03 DE=-1.67D-04 OVMax= 1.68D-03

 Cycle  10  Pass 1  IDiag  1:
 RMSU=  4.68D-05    CP:  1.06D+00 -3.12D-03  5.21D-03  7.87D-01  2.68D+00
                    CP:  2.64D+00  3.00D+00  1.60D+00  1.08D+00
 E= -727.856509116207     Delta-E=       -0.000006396096 Rises=F Damp=F
 DIIS: error= 9.51D-05 at cycle  10 NSaved=  10.
 NSaved=10 IEnMin=10 EnMin= -727.856509116207     IErMin=10 ErrMin= 9.51D-05
 ErrMax= 9.51D-05  0.00D+00 EMaxC= 1.00D-01 BMatC= 2.20D-06 BMatP= 1.42D-05
 IDIUse=1 WtCom= 1.00D+00 WtEn= 0.00D+00
 Coeff-Com:  0.241D-02-0.376D-02 0.188D-02-0.753D-03 0.773D-02 0.563D-01
 Coeff-Com: -0.100D+00-0.316D-01 0.300D+00 0.768D+00
 Coeff:      0.241D-02-0.376D-02 0.188D-02-0.753D-03 0.773D-02 0.563D-01
 Coeff:     -0.100D+00-0.316D-01 0.300D+00 0.768D+00
 Gap=     0.023 Goal=   None    Shift=    0.000
 Gap=     0.194 Goal=   None    Shift=    0.000
 RMSDP=3.22D-05 MaxDP=2.58D-03 DE=-6.40D-06 OVMax= 9.13D-04

 Cycle  11  Pass 1  IDiag  1:
 RMSU=  2.91D-05    CP:  1.06D+00 -3.13D-03  5.21D-03  7.88D-01  2.67D+00
                    CP:  2.64D+00  3.00D+00  1.61D+00  1.13D+00  1.05D+00
 E= -727.856510397271     Delta-E=       -0.000001281064 Rises=F Damp=F
 DIIS: error= 6.01D-05 at cycle  11 NSaved=  11.
 NSaved=11 IEnMin=11 EnMin= -727.856510397271     IErMin=11 ErrMin= 6.01D-05
 ErrMax= 6.01D-05  0.00D+00 EMaxC= 1.00D-01 BMatC= 1.15D-06 BMatP= 2.20D-06
 IDIUse=1 WtCom= 1.00D+00 WtEn= 0.00D+00
 Coeff-Com: -0.243D-02 0.330D-02 0.161D-03-0.676D-03 0.248D-02 0.344D-01
 Coeff-Com: -0.423D-01-0.772D-01-0.152D+00 0.437D+00 0.798D+00
 Coeff:     -0.243D-02 0.330D-02 0.161D-03-0.676D-03 0.248D-02 0.344D-01
 Coeff:     -0.423D-01-0.772D-01-0.152D+00 0.437D+00 0.798D+00
 Gap=     0.023 Goal=   None    Shift=    0.000
 Gap=     0.194 Goal=   None    Shift=    0.000
 RMSDP=3.61D-05 MaxDP=2.30D-03 DE=-1.28D-06 OVMax= 7.83D-04

 Cycle  12  Pass 1  IDiag  1:
 RMSU=  2.16D-05    CP:  1.06D+00 -3.13D-03  5.22D-03  7.88D-01  2.67D+00
                    CP:  2.65D+00  3.00D+00  1.62D+00  1.17D+00  1.33D+00
                    CP:  1.78D+00
 E= -727.856511152503     Delta-E=       -0.000000755232 Rises=F Damp=F
 DIIS: error= 2.84D-05 at cycle  12 NSaved=  12.
 NSaved=12 IEnMin=12 EnMin= -727.856511152503     IErMin=12 ErrMin= 2.84D-05
 ErrMax= 2.84D-05  0.00D+00 EMaxC= 1.00D-01 BMatC= 2.15D-07 BMatP= 1.15D-06
 IDIUse=1 WtCom= 1.00D+00 WtEn= 0.00D+00
 Coeff-Com: -0.453D-03 0.749D-03-0.222D-03 0.178D-02-0.191D-02-0.170D-01
 Coeff-Com:  0.184D-01 0.191D-01-0.210D-01-0.199D+00-0.142D+00 0.134D+01
 Coeff:     -0.453D-03 0.749D-03-0.222D-03 0.178D-02-0.191D-02-0.170D-01
 Coeff:      0.184D-01 0.191D-01-0.210D-01-0.199D+00-0.142D+00 0.134D+01
 Gap=     0.023 Goal=   None    Shift=    0.000
 Gap=     0.194 Goal=   None    Shift=    0.000
 RMSDP=7.47D-05 MaxDP=5.25D-03 DE=-7.55D-07 OVMax= 6.00D-04

 Cycle  13  Pass 1  IDiag  1:
 RMSU=  2.17D-05    CP:  1.06D+00 -3.13D-03  5.22D-03  7.88D-01  2.67D+00
                    CP:  2.65D+00  3.00D+00  1.62D+00  1.20D+00  1.70D+00
                    CP:  3.00D+00  3.00D+00
 E= -727.856511393412     Delta-E=       -0.000000240909 Rises=F Damp=F
 DIIS: error= 1.19D-05 at cycle  13 NSaved=  13.
 NSaved=13 IEnMin=13 EnMin= -727.856511393412     IErMin=13 ErrMin= 1.19D-05
 ErrMax= 1.19D-05  0.00D+00 EMaxC= 1.00D-01 BMatC= 3.04D-08 BMatP= 2.15D-07
 IDIUse=1 WtCom= 1.00D+00 WtEn= 0.00D+00
 Coeff-Com:  0.297D-03-0.378D-03-0.126D-03 0.688D-03-0.986D-03-0.115D-01
 Coeff-Com:  0.127D-01 0.217D-01 0.224D-01-0.152D+00-0.210D+00 0.509D+00
 Coeff-Com:  0.807D+00
 Coeff:      0.297D-03-0.378D-03-0.126D-03 0.688D-03-0.986D-03-0.115D-01
 Coeff:      0.127D-01 0.217D-01 0.224D-01-0.152D+00-0.210D+00 0.509D+00
 Coeff:      0.807D+00
 Gap=     0.023 Goal=   None    Shift=    0.000
 Gap=     0.194 Goal=   None    Shift=    0.000
 RMSDP=9.01D-05 MaxDP=6.37D-03 DE=-2.41D-07 OVMax= 3.64D-04

 Cycle  14  Pass 1  IDiag  1:
 RMSU=  5.62D-05    CP:  1.06D+00 -3.13D-03  5.22D-03  7.88D-01  2.68D+00
                    CP:  2.65D+00  3.00D+00  1.63D+00  1.22D+00  2.20D+00
                    CP:  3.00D+00  3.00D+00  3.00D+00
 E= -727.856511427678     Delta-E=       -0.000000034266 Rises=F Damp=F
 DIIS: error= 4.92D-06 at cycle  14 NSaved=  14.
 NSaved=14 IEnMin=14 EnMin= -727.856511427678     IErMin=14 ErrMin= 4.92D-06
 ErrMax= 4.92D-06  0.00D+00 EMaxC= 1.00D-01 BMatC= 1.30D-08 BMatP= 3.04D-08
 IDIUse=1 WtCom= 1.00D+00 WtEn= 0.00D+00
 Coeff-Com:  0.206D-03-0.305D-03 0.116D-03-0.227D-03 0.213D-03-0.674D-03
 Coeff-Com:  0.159D-02 0.498D-02 0.122D-01-0.224D-01-0.575D-01-0.719D-01
 Coeff-Com:  0.318D+00 0.815D+00
 Coeff:      0.206D-03-0.305D-03 0.116D-03-0.227D-03 0.213D-03-0.674D-03
 Coeff:      0.159D-02 0.498D-02 0.122D-01-0.224D-01-0.575D-01-0.719D-01
 Coeff:      0.318D+00 0.815D+00
 Gap=     0.023 Goal=   None    Shift=    0.000
 Gap=     0.194 Goal=   None    Shift=    0.000
 RMSDP=1.40D-04 MaxDP=9.88D-03 DE=-3.43D-08 OVMax= 5.58D-04

 Cycle  15  Pass 1  IDiag  1:
 RMSU=  5.97D-05    CP:  1.06D+00 -3.12D-03  5.21D-03  7.88D-01  2.67D+00
                    CP:  2.65D+00  3.00D+00  1.64D+00  1.25D+00  2.98D+00
                    CP:  3.00D+00  3.00D+00  3.00D+00  3.00D+00
 E= -727.856511453970     Delta-E=       -0.000000026292 Rises=F Damp=F
 DIIS: error= 2.82D-06 at cycle  15 NSaved=  15.
 NSaved=15 IEnMin=15 EnMin= -727.856511453970     IErMin=15 ErrMin= 2.82D-06
 ErrMax= 2.82D-06  0.00D+00 EMaxC= 1.00D-01 BMatC= 2.25D-09 BMatP= 1.30D-08
 IDIUse=1 WtCom= 1.00D+00 WtEn= 0.00D+00
 Coeff-Com:  0.681D-04-0.976D-04-0.166D-05-0.651D-04 0.544D-05 0.210D-03
 Coeff-Com:  0.161D-03 0.629D-03 0.350D-02 0.145D-02-0.625D-02-0.754D-01
 Coeff-Com:  0.435D-01 0.344D+00 0.689D+00
 Coeff:      0.681D-04-0.976D-04-0.166D-05-0.651D-04 0.544D-05 0.210D-03
 Coeff:      0.161D-03 0.629D-03 0.350D-02 0.145D-02-0.625D-02-0.754D-01
 Coeff:      0.435D-01 0.344D+00 0.689D+00
 Gap=     0.023 Goal=   None    Shift=    0.000
 Gap=     0.194 Goal=   None    Shift=    0.000
 RMSDP=1.75D-04 MaxDP=1.23D-02 DE=-2.63D-08 OVMax= 6.93D-04

 Cycle  16  Pass 1  IDiag  1:
 RMSU=  1.45D-04    CP:  1.06D+00 -3.12D-03  5.21D-03  7.88D-01  2.67D+00
                    CP:  2.65D+00  3.00D+00  1.64D+00  1.30D+00  3.00D+00
                    CP:  3.00D+00  3.00D+00  3.00D+00  3.00D+00  2.60D+00
 E= -727.856511491431     Delta-E=       -0.000000037461 Rises=F Damp=F
 DIIS: error= 4.08D-06 at cycle  16 NSaved=  16.
 NSaved=16 IEnMin=16 EnMin= -727.856511491431     IErMin=15 ErrMin= 2.82D-06
 ErrMax= 4.08D-06  0.00D+00 EMaxC= 1.00D-01 BMatC= 3.19D-09 BMatP= 2.25D-09
 IDIUse=1 WtCom= 1.00D+00 WtEn= 0.00D+00
 Coeff-Com:  0.753D-04-0.105D-03-0.172D-04-0.111D-03 0.269D-05 0.918D-03
 Coeff-Com: -0.494D-03-0.690D-03 0.329D-02 0.142D-01 0.955D-02-0.160D+00
 Coeff-Com: -0.193D-01 0.513D+00 0.171D+01-0.107D+01
 Coeff:      0.753D-04-0.105D-03-0.172D-04-0.111D-03 0.269D-05 0.918D-03
 Coeff:     -0.494D-03-0.690D-03 0.329D-02 0.142D-01 0.955D-02-0.160D+00
 Coeff:     -0.193D-01 0.513D+00 0.171D+01-0.107D+01
 Gap=     0.023 Goal=   None    Shift=    0.000
 Gap=     0.194 Goal=   None    Shift=    0.000
 RMSDP=2.84D-04 MaxDP=2.00D-02 DE=-3.75D-08 OVMax= 1.13D-03

 Cycle  17  Pass 1  IDiag  1:
 RMSU=  9.59D-07    CP:  1.06D+00 -3.12D-03  5.21D-03  7.88D-01  2.67D+00
                    CP:  2.65D+00  3.00D+00  1.63D+00  1.23D+00  2.37D+00
                    CP:  3.00D+00  3.00D+00  3.00D+00  1.47D+00  2.15D-01
                    CP: -1.29D-02
 E= -727.856511438098     Delta-E=        0.000000053332 Rises=F Damp=F
 DIIS: error= 2.03D-06 at cycle  17 NSaved=  17.
 NSaved=17 IEnMin=16 EnMin= -727.856511491431     IErMin=17 ErrMin= 2.03D-06
 ErrMax= 2.03D-06  0.00D+00 EMaxC= 1.00D-01 BMatC= 1.53D-09 BMatP= 2.25D-09
 IDIUse=1 WtCom= 1.00D+00 WtEn= 0.00D+00
 Coeff-Com:  0.992D-05-0.112D-04-0.782D-04-0.878D-05-0.977D-04 0.100D-02
 Coeff-Com: -0.854D-03-0.195D-02-0.565D-03 0.177D-01 0.231D-01-0.107D+00
 Coeff-Com: -0.982D-01 0.198D+00 0.132D+01-0.143D+01 0.109D+01
 Coeff:      0.992D-05-0.112D-04-0.782D-04-0.878D-05-0.977D-04 0.100D-02
 Coeff:     -0.854D-03-0.195D-02-0.565D-03 0.177D-01 0.231D-01-0.107D+00
 Coeff:     -0.982D-01 0.198D+00 0.132D+01-0.143D+01 0.109D+01
 Gap=     0.023 Goal=   None    Shift=    0.000
 Gap=     0.194 Goal=   None    Shift=    0.000
 RMSDP=2.23D-04 MaxDP=1.58D-02 DE= 5.33D-08 OVMax= 8.87D-04

 Cycle  18  Pass 1  IDiag  1:
 RMSU=  7.39D-06    CP:  1.06D+00 -3.13D-03  5.22D-03  7.88D-01  2.67D+00
                    CP:  2.65D+00  3.00D+00  1.62D+00  1.18D+00  1.15D+00
                    CP:  1.25D+00  1.01D-01 -3.36D-01  8.86D-02 -5.27D-02
                    CP:  3.02D-03  3.00D+00
 E= -727.856511421277     Delta-E=        0.000000016821 Rises=F Damp=F
 DIIS: error= 1.16D-06 at cycle  18 NSaved=  18.
 NSaved=18 IEnMin=16 EnMin= -727.856511491431     IErMin=18 ErrMin= 1.16D-06
 ErrMax= 1.16D-06  0.00D+00 EMaxC= 1.00D-01 BMatC= 9.84D-10 BMatP= 1.53D-09
 IDIUse=1 WtCom= 1.00D+00 WtEn= 0.00D+00
 Coeff-Com: -0.120D-04 0.141D-04-0.145D-04 0.283D-04-0.331D-05 0.392D-03
 Coeff-Com: -0.345D-03-0.734D-03-0.997D-03 0.329D-02 0.593D-02 0.561D-02
 Coeff-Com: -0.408D-01-0.797D-01-0.948D-02-0.294D+00 0.515D+00 0.895D+00
 Coeff:     -0.120D-04 0.141D-04-0.145D-04 0.283D-04-0.331D-05 0.392D-03
 Coeff:     -0.345D-03-0.734D-03-0.997D-03 0.329D-02 0.593D-02 0.561D-02
 Coeff:     -0.408D-01-0.797D-01-0.948D-02-0.294D+00 0.515D+00 0.895D+00
 Gap=     0.023 Goal=   None    Shift=    0.000
 Gap=     0.194 Goal=   None    Shift=    0.000
 RMSDP=5.50D-05 MaxDP=3.89D-03 DE= 1.68D-08 OVMax= 2.19D-04

 Cycle  19  Pass 1  IDiag  1:
 RMSU=  1.36D-06    CP:  1.06D+00 -3.13D-03  5.22D-03  7.88D-01  2.67D+00
                    CP:  2.65D+00  3.00D+00  1.62D+00  1.16D+00  8.46D-01
                    CP:  1.64D-01 -1.76D+00 -8.07D-01  2.23D-01 -1.28D-01
                    CP:  7.49D-03  3.00D+00  1.54D+00
 E= -727.856511420834     Delta-E=        0.000000000443 Rises=F Damp=F
 DIIS: error= 2.95D-07 at cycle  19 NSaved=  19.
 NSaved=19 IEnMin=16 EnMin= -727.856511491431     IErMin=19 ErrMin= 2.95D-07
 ErrMax= 2.95D-07  0.00D+00 EMaxC= 1.00D-01 BMatC= 3.60D-11 BMatP= 9.84D-10
 IDIUse=1 WtCom= 1.00D+00 WtEn= 0.00D+00
 Coeff-Com:  0.309D-06-0.628D-06-0.645D-05 0.880D-05-0.162D-04-0.623D-04
 Coeff-Com:  0.978D-04 0.717D-04 0.842D-04-0.125D-02-0.190D-02 0.102D-01
 Coeff-Com:  0.504D-02-0.200D-01-0.110D+00 0.143D+00-0.130D+00-0.236D-01
 Coeff-Com:  0.113D+01
 Coeff:      0.309D-06-0.628D-06-0.645D-05 0.880D-05-0.162D-04-0.623D-04
 Coeff:      0.978D-04 0.717D-04 0.842D-04-0.125D-02-0.190D-02 0.102D-01
 Coeff:      0.504D-02-0.200D-01-0.110D+00 0.143D+00-0.130D+00-0.236D-01
 Coeff:      0.113D+01
 Gap=     0.023 Goal=   None    Shift=    0.000
 Gap=     0.194 Goal=   None    Shift=    0.000
 RMSDP=3.25D-06 MaxDP=2.30D-04 DE= 4.43D-10 OVMax= 1.53D-05

 Cycle  20  Pass 1  IDiag  1:
 RMSU=  6.83D-08    CP:  1.06D+00 -3.13D-03  5.22D-03  7.88D-01  2.67D+00
                    CP:  2.65D+00  3.00D+00  1.62D+00  1.16D+00  8.28D-01
                    CP:  1.01D-01 -1.87D+00 -8.36D-01  2.31D-01 -1.33D-01
                    CP:  7.77D-03  3.00D+00  1.58D+00  1.07D+00
 E= -727.856511420852     Delta-E=       -0.000000000018 Rises=F Damp=F
 DIIS: error= 1.26D-07 at cycle  20 NSaved=  20.
 NSaved=20 IEnMin=16 EnMin= -727.856511491431     IErMin=20 ErrMin= 1.26D-07
 ErrMax= 1.26D-07  0.00D+00 EMaxC= 1.00D-01 BMatC= 7.44D-12 BMatP= 3.60D-11
 IDIUse=1 WtCom= 1.00D+00 WtEn= 0.00D+00
 Coeff-Com:  0.968D-06-0.126D-05-0.193D-05-0.189D-05-0.333D-05-0.205D-05
 Coeff-Com:  0.213D-04-0.393D-05 0.451D-04-0.153D-04 0.302D-05-0.111D-02
 Coeff-Com:  0.573D-03 0.512D-02 0.152D-01 0.116D-01-0.340D-01-0.729D-01
 Coeff-Com: -0.474D-01 0.112D+01
 Coeff:      0.968D-06-0.126D-05-0.193D-05-0.189D-05-0.333D-05-0.205D-05
 Coeff:      0.213D-04-0.393D-05 0.451D-04-0.153D-04 0.302D-05-0.111D-02
 Coeff:      0.573D-03 0.512D-02 0.152D-01 0.116D-01-0.340D-01-0.729D-01
 Coeff:     -0.474D-01 0.112D+01
 Gap=     0.023 Goal=   None    Shift=    0.000
 Gap=     0.194 Goal=   None    Shift=    0.000
 RMSDP=1.87D-07 MaxDP=1.29D-05 DE=-1.82D-11 OVMax= 3.19D-06

 Cycle  21  Pass 1  IDiag  1:
 Restarting incremental Fock formation.
 E= -727.856511420853     Delta-E=       -0.000000000001 Rises=F Damp=F
 DIIS: error= 4.43D-08 at cycle  21 NSaved=  20.
 NSaved=20 IEnMin=15 EnMin= -727.856511491431     IErMin=20 ErrMin= 4.43D-08
 ErrMax= 4.43D-08  0.00D+00 EMaxC= 1.00D-01 BMatC= 1.21D-12 BMatP= 7.44D-12
 IDIUse=1 WtCom= 1.00D+00 WtEn= 0.00D+00
 Coeff-Com:  0.645D-07-0.707D-06-0.218D-05-0.882D-08 0.140D-04-0.251D-05
 Coeff-Com: -0.265D-04-0.960D-05 0.186D-03 0.305D-03-0.170D-02-0.746D-03
 Coeff-Com:  0.423D-02 0.208D-01-0.101D-01-0.288D-02-0.353D-01-0.152D+00
 Coeff-Com:  0.640D+00 0.537D+00
 Coeff:      0.645D-07-0.707D-06-0.218D-05-0.882D-08 0.140D-04-0.251D-05
 Coeff:     -0.265D-04-0.960D-05 0.186D-03 0.305D-03-0.170D-02-0.746D-03
 Coeff:      0.423D-02 0.208D-01-0.101D-01-0.288D-02-0.353D-01-0.152D+00
 Coeff:      0.640D+00 0.537D+00
 Gap=     0.023 Goal=   None    Shift=    0.000
 Gap=     0.194 Goal=   None    Shift=    0.000
 RMSDP=1.56D-08 MaxDP=9.08D-07 DE=-1.14D-12 OVMax= 6.76D-07

 Cycle  22  Pass 1  IDiag  1:
 RMSU=  1.56D-08    CP:  1.00D+00
 E= -727.856511420858     Delta-E=       -0.000000000005 Rises=F Damp=F
 DIIS: error= 1.87D-08 at cycle  22 NSaved=  20.
 NSaved=20 IEnMin=14 EnMin= -727.856511491431     IErMin=20 ErrMin= 1.87D-08
 ErrMax= 1.87D-08  0.00D+00 EMaxC= 1.00D-01 BMatC= 1.47D-13 BMatP= 1.21D-12
 IDIUse=1 WtCom= 1.00D+00 WtEn= 0.00D+00
 Coeff-Com:  0.126D-06 0.786D-07 0.843D-06 0.694D-05-0.803D-05-0.679D-05
 Coeff-Com:  0.140D-05 0.873D-04 0.750D-04-0.425D-03-0.509D-03 0.299D-03
 Coeff-Com:  0.443D-02-0.890D-02 0.105D-01 0.975D-02-0.528D-01-0.101D+00
 Coeff-Com:  0.111D+00 0.103D+01
 Coeff:      0.126D-06 0.786D-07 0.843D-06 0.694D-05-0.803D-05-0.679D-05
 Coeff:      0.140D-05 0.873D-04 0.750D-04-0.425D-03-0.509D-03 0.299D-03
 Coeff:      0.443D-02-0.890D-02 0.105D-01 0.975D-02-0.528D-01-0.101D+00
 Coeff:      0.111D+00 0.103D+01
 Gap=     0.023 Goal=   None    Shift=    0.000
 Gap=     0.194 Goal=   None    Shift=    0.000
 RMSDP=1.19D-08 MaxDP=6.51D-07 DE=-5.23D-12 OVMax= 9.89D-07

 Cycle  23  Pass 1  IDiag  1:
 RMSU=  1.02D-08    CP:  1.00D+00  1.39D+00
 E= -727.856511420857     Delta-E=        0.000000000002 Rises=F Damp=F
 DIIS: error= 1.26D-08 at cycle  23 NSaved=  20.
 NSaved=20 IEnMin=13 EnMin= -727.856511491431     IErMin=20 ErrMin= 1.26D-08
 ErrMax= 1.26D-08  0.00D+00 EMaxC= 1.00D-01 BMatC= 2.93D-14 BMatP= 1.47D-13
 IDIUse=1 WtCom= 1.00D+00 WtEn= 0.00D+00
 Large coefficients: NSaved= 20 BigCof=    0.00 CofMax=   10.00 Det=-9.07D-15
 Inversion failed.  Reducing to 19 matrices.
 Large coefficients: NSaved= 19 BigCof=    0.00 CofMax=   10.00 Det=-9.16D-15
 Inversion failed.  Reducing to 18 matrices.
 Coeff-Com:  0.292D-06-0.311D-05-0.570D-07 0.135D-05-0.118D-04-0.219D-04
 Coeff-Com:  0.210D-03 0.106D-03-0.567D-03-0.295D-02 0.283D-02-0.204D-02
 Coeff-Com:  0.228D-02 0.306D-01-0.270D-01-0.273D+00-0.745D-01 0.134D+01
 Coeff:      0.292D-06-0.311D-05-0.570D-07 0.135D-05-0.118D-04-0.219D-04
 Coeff:      0.210D-03 0.106D-03-0.567D-03-0.295D-02 0.283D-02-0.204D-02
 Coeff:      0.228D-02 0.306D-01-0.270D-01-0.273D+00-0.745D-01 0.134D+01
 Gap=     0.023 Goal=   None    Shift=    0.000
 Gap=     0.194 Goal=   None    Shift=    0.000
 RMSDP=8.73D-09 MaxDP=5.07D-07 DE= 1.59D-12 OVMax= 8.63D-07

 SCF Done:  E(UPBE1PBE) =  -727.856511421     A.U. after   23 cycles
            NFock= 23  Conv=0.87D-08     -V/T= 2.0018
 <Sx>= 0.0000 <Sy>= 0.0000 <Sz>= 0.5000 <S**2>= 0.7587 S= 0.5043
 <L.S>=  0.00000000000    
 KE= 7.265530990108D+02 PE=-2.989709603289D+03 EE= 9.101642986372D+02
 Annihilation of the first spin contaminant:
 S**2 before annihilation     0.7587,   after     0.7500
 Leave Link  502 at Thu Jan 30 15:02:36 2025, MaxMem=   104857600 cpu:             117.4 elap:             117.7
 (Enter /sw/cluster/pub/apps//g16/l601.exe)
 Copying SCF densities to generalized density rwf, IOpCl= 1 IROHF=0.

 **********************************************************************

            Population analysis using the SCF density.

 **********************************************************************

 Alpha  occ. eigenvalues --  -24.63713 -24.63709 -24.63044 -24.63042 -24.62486
 Alpha  occ. eigenvalues --  -10.13627 -10.13623 -10.13423 -10.13422 -10.11368
 Alpha  occ. eigenvalues --  -10.03763  -1.13217  -1.12803  -1.11670  -1.11327
 Alpha  occ. eigenvalues --   -1.10814  -0.73107  -0.61741  -0.61519  -0.51182
 Alpha  occ. eigenvalues --   -0.50598  -0.44617  -0.43408  -0.42893  -0.39406
 Alpha  occ. eigenvalues --   -0.38363  -0.37280  -0.35979  -0.35101  -0.33794
 Alpha  occ. eigenvalues --   -0.32464  -0.31981  -0.30962  -0.29808  -0.29199
 Alpha  occ. eigenvalues --   -0.25375  -0.23110  -0.21866  -0.19467  -0.10219
 Alpha  occ. eigenvalues --   -0.08968   0.09402
 Alpha virt. eigenvalues --    0.11691   0.13636   0.15483   0.17524   0.17790
 Alpha virt. eigenvalues --    0.17896   0.19407   0.19958   0.21840   0.22222
 Alpha virt. eigenvalues --    0.22330   0.23974   0.24098   0.25359   0.25570
 Alpha virt. eigenvalues --    0.25801   0.27012   0.27037   0.27471   0.28060
 Alpha virt. eigenvalues --    0.28405   0.31344   0.31380   0.32695   0.32762
 Alpha virt. eigenvalues --    0.33181   0.33825   0.34644   0.36221   0.38044
 Alpha virt. eigenvalues --    0.40062   0.42634   0.43764   0.43958   0.45397
 Alpha virt. eigenvalues --    0.46192   0.47330   0.47406   0.47934   0.48722
 Alpha virt. eigenvalues --    0.48915   0.51028   0.51121   0.52752   0.53069
 Alpha virt. eigenvalues --    0.54117   0.54990   0.55168   0.55317   0.57922
 Alpha virt. eigenvalues --    0.58097   0.60939   0.61815   0.64893   0.66098
 Alpha virt. eigenvalues --    0.66497   0.67057   0.68119   0.71057   0.73991
 Alpha virt. eigenvalues --    0.74044   0.75460   0.76490   0.78615   0.80922
 Alpha virt. eigenvalues --    0.83205   0.89954   0.90063   0.90360   0.91114
 Alpha virt. eigenvalues --    0.93535   0.96038   0.99995   1.01350   1.05702
 Alpha virt. eigenvalues --    1.09285   1.09564   1.13786   1.14078   1.14130
 Alpha virt. eigenvalues --    1.16061   1.22031   1.22279   1.23998   1.25589
 Alpha virt. eigenvalues --    1.30682   1.33751   1.36138   1.38142   1.43327
 Alpha virt. eigenvalues --    1.46756   1.53820   1.56505   1.58430   1.59439
 Alpha virt. eigenvalues --    1.59457   1.60188   1.60370   1.61547   1.61827
 Alpha virt. eigenvalues --    1.62150   1.64714   1.70272   1.70354   1.70610
 Alpha virt. eigenvalues --    1.71094   1.72699   1.75367   1.78017   1.79798
 Alpha virt. eigenvalues --    1.83975   1.91897   1.93432   1.96421   2.00182
 Alpha virt. eigenvalues --    2.02656   2.02711   2.05556   2.06259   2.11711
 Alpha virt. eigenvalues --    2.15379   2.18558   2.20683   2.23857   2.26644
 Alpha virt. eigenvalues --    2.26750   2.33972   2.37532   2.40008   2.41873
 Alpha virt. eigenvalues --    2.46636   2.48593   2.59497   2.60456   2.78192
 Alpha virt. eigenvalues --    2.78456   2.87520   2.89693   2.92488   2.92793
 Alpha virt. eigenvalues --    3.03649   3.05968   3.27212   3.27894   3.33117
 Alpha virt. eigenvalues --    3.33210   3.36091   3.41387   3.44922   3.57839
 Alpha virt. eigenvalues --    3.65213   3.82706   3.93031   3.93748   3.93905
 Alpha virt. eigenvalues --    3.94576   3.95625   3.95755   3.96010   3.96881
 Alpha virt. eigenvalues --    4.01906   4.02127   4.06245   4.12467   4.13895
 Alpha virt. eigenvalues --    4.14881   4.17892   4.18887   4.19609   4.23487
 Alpha virt. eigenvalues --    4.26157   4.27545   4.33061   4.37882   4.42710
 Alpha virt. eigenvalues --    4.88776   5.01018   5.07358   5.09782   5.12849
 Alpha virt. eigenvalues --    5.18876   6.47773   6.50890   6.52652   6.54073
 Alpha virt. eigenvalues --    6.56724   6.57703   6.62128   6.65661   6.67652
 Alpha virt. eigenvalues --    6.75179   6.76417   6.95910   7.01192   7.04789
 Alpha virt. eigenvalues --    7.11804  23.70079  24.12425  24.17167  24.30079
 Alpha virt. eigenvalues --   24.34240  24.46164  67.06786  67.09579  67.11992
 Alpha virt. eigenvalues --   67.13140  67.18116
  Beta  occ. eigenvalues --  -24.63713 -24.63709 -24.63025 -24.63023 -24.62347
  Beta  occ. eigenvalues --  -10.13643 -10.13638 -10.13239 -10.13238 -10.10623
  Beta  occ. eigenvalues --  -10.03277  -1.13119  -1.12767  -1.11528  -1.11279
  Beta  occ. eigenvalues --   -1.10599  -0.72491  -0.61032  -0.60830  -0.50471
  Beta  occ. eigenvalues --   -0.50338  -0.44474  -0.43169  -0.42710  -0.39319
  Beta  occ. eigenvalues --   -0.38234  -0.36512  -0.35871  -0.34812  -0.33093
  Beta  occ. eigenvalues --   -0.32293  -0.31333  -0.30573  -0.29687  -0.29143
  Beta  occ. eigenvalues --   -0.25293  -0.22762  -0.21675  -0.17932  -0.07543
  Beta  occ. eigenvalues --   -0.07026
  Beta virt. eigenvalues --    0.12364   0.13978   0.15679   0.17700   0.18058
  Beta virt. eigenvalues --    0.18205   0.18282   0.20100   0.20241   0.22568
  Beta virt. eigenvalues --    0.22685   0.22749   0.24279   0.24486   0.25969
  Beta virt. eigenvalues --    0.26226   0.26488   0.27206   0.27326   0.27701
  Beta virt. eigenvalues --    0.28535   0.28908   0.31513   0.31570   0.32899
  Beta virt. eigenvalues --    0.33436   0.33596   0.35043   0.36412   0.36859
  Beta virt. eigenvalues --    0.38594   0.40365   0.43333   0.44240   0.44269
  Beta virt. eigenvalues --    0.45837   0.46279   0.47486   0.47611   0.48532
  Beta virt. eigenvalues --    0.49037   0.49146   0.51281   0.51466   0.52925
  Beta virt. eigenvalues --    0.53164   0.54269   0.55116   0.55488   0.55883
  Beta virt. eigenvalues --    0.58121   0.58175   0.61651   0.62259   0.64996
  Beta virt. eigenvalues --    0.66142   0.66590   0.67976   0.68294   0.72007
  Beta virt. eigenvalues --    0.74548   0.75671   0.75792   0.76740   0.80821
  Beta virt. eigenvalues --    0.81368   0.83525   0.90340   0.90622   0.90894
  Beta virt. eigenvalues --    0.92129   0.93887   0.96664   1.00717   1.01626
  Beta virt. eigenvalues --    1.06112   1.09744   1.09898   1.13920   1.14979
  Beta virt. eigenvalues --    1.15424   1.16469   1.22810   1.23026   1.24151
  Beta virt. eigenvalues --    1.25777   1.31801   1.34169   1.37312   1.39102
  Beta virt. eigenvalues --    1.43991   1.47135   1.54002   1.56551   1.58525
  Beta virt. eigenvalues --    1.59579   1.59637   1.60397   1.60569   1.61939
  Beta virt. eigenvalues --    1.62072   1.62446   1.65163   1.70350   1.70449
  Beta virt. eigenvalues --    1.70680   1.71139   1.73128   1.75409   1.79033
  Beta virt. eigenvalues --    1.80246   1.84089   1.92305   1.93866   1.97036
  Beta virt. eigenvalues --    2.00433   2.03881   2.04093   2.06275   2.08104
  Beta virt. eigenvalues --    2.11837   2.15612   2.18652   2.21153   2.25140
  Beta virt. eigenvalues --    2.26722   2.27291   2.34258   2.37891   2.40487
  Beta virt. eigenvalues --    2.42629   2.47983   2.48801   2.59625   2.61028
  Beta virt. eigenvalues --    2.78422   2.79698   2.87885   2.90290   2.92791
  Beta virt. eigenvalues --    2.94987   3.04274   3.08198   3.27380   3.29334
  Beta virt. eigenvalues --    3.33257   3.33404   3.36304   3.41667   3.45058
  Beta virt. eigenvalues --    3.58108   3.65425   3.83066   3.93247   3.93823
  Beta virt. eigenvalues --    3.94208   3.94608   3.95822   3.95827   3.96142
  Beta virt. eigenvalues --    3.97101   4.01966   4.02310   4.06612   4.12631
  Beta virt. eigenvalues --    4.13901   4.14959   4.18241   4.19373   4.19689
  Beta virt. eigenvalues --    4.23767   4.26196   4.28063   4.33103   4.37962
  Beta virt. eigenvalues --    4.42824   4.88893   5.01116   5.07535   5.10453
  Beta virt. eigenvalues --    5.12910   5.19011   6.47938   6.50950   6.52999
  Beta virt. eigenvalues --    6.54149   6.56752   6.57932   6.62138   6.65716
  Beta virt. eigenvalues --    6.67658   6.75209   6.76471   6.95943   7.01315
  Beta virt. eigenvalues --    7.04821   7.11887  23.70316  24.12509  24.17585
  Beta virt. eigenvalues --   24.30181  24.34609  24.46501  67.06819  67.09586
  Beta virt. eigenvalues --   67.12051  67.13149  67.18157
          Condensed to atoms (all electrons):
               1          2          3          4          5          6
     1  C   13.015291  -1.363833   1.258743  -2.889092  -2.776502  -1.049228
     2  C   -1.363833  14.833612  -1.364228  -1.657917  -3.070702  -1.656701
     3  C    1.258743  -1.364228  13.015602  -1.046339  -2.781196  -2.886451
     4  C   -2.889092  -1.657917  -1.046339  14.881544  -0.481681  -2.847435
     5  C   -2.776502  -3.070702  -2.781196  -0.481681  15.567089  -0.477638
     6  C   -1.049228  -1.656701  -2.886451  -2.847435  -0.477638  14.876577
     7  H   -0.118914   0.562635  -0.118935  -0.012348  -0.017855  -0.012376
     8  F   -0.002865  -0.219165   0.524689  -0.310606  -0.014759  -0.016237
     9  F    0.011129  -0.074276  -0.263128   0.519571  -0.176780  -0.074142
    10  F   -0.070993   0.014225  -0.070936  -0.193496   0.428813  -0.193513
    11  F   -0.262897  -0.074270   0.011119  -0.074224  -0.176684   0.519281
    12  F    0.524826  -0.219403  -0.002754  -0.016324  -0.014618  -0.310604
               7          8          9         10         11         12
     1  C   -0.118914  -0.002865   0.011129  -0.070993  -0.262897   0.524826
     2  C    0.562635  -0.219165  -0.074276   0.014225  -0.074270  -0.219403
     3  C   -0.118935   0.524689  -0.263128  -0.070936   0.011119  -0.002754
     4  C   -0.012348  -0.310606   0.519571  -0.193496  -0.074224  -0.016324
     5  C   -0.017855  -0.014759  -0.176780   0.428813  -0.176684  -0.014618
     6  C   -0.012376  -0.016237  -0.074142  -0.193513   0.519281  -0.310604
     7  H    0.557546  -0.023214  -0.000772   0.000382  -0.000771  -0.023235
     8  F   -0.023214   9.278858   0.006418  -0.000205   0.000114  -0.000730
     9  F   -0.000772   0.006418   9.304917  -0.002597   0.000060   0.000114
    10  F    0.000382  -0.000205  -0.002597   9.340835  -0.002598  -0.000206
    11  F   -0.000771   0.000114   0.000060  -0.002598   9.305055   0.006430
    12  F   -0.023235  -0.000730   0.000114  -0.000206   0.006430   9.278731
          Atomic-Atomic Spin Densities.
               1          2          3          4          5          6
     1  C    0.598487  -0.603111   0.172206   0.081744  -0.264787   0.174363
     2  C   -0.603111   1.747846  -0.602777  -0.219603   0.349259  -0.219466
     3  C    0.172206  -0.602777   0.597849   0.174395  -0.264604   0.081627
     4  C    0.081744  -0.219603   0.174395  -0.035228  -0.027204  -0.043104
     5  C   -0.264787   0.349259  -0.264604  -0.027204   0.771162  -0.027092
     6  C    0.174363  -0.219466   0.081627  -0.043104  -0.027092  -0.035548
     7  H   -0.026571   0.049792  -0.026554   0.006446  -0.007820   0.006454
     8  F   -0.007887   0.048765  -0.062503  -0.007651   0.007608  -0.001230
     9  F   -0.006319   0.015890  -0.026714   0.005511   0.008972   0.001791
    10  F    0.017264  -0.019755   0.017255   0.006391  -0.102649   0.006390
    11  F   -0.026710   0.015878  -0.006310   0.001791   0.008957   0.005551
    12  F   -0.062572   0.048797  -0.007894  -0.001232   0.007612  -0.007635
               7          8          9         10         11         12
     1  C   -0.026571  -0.007887  -0.006319   0.017264  -0.026710  -0.062572
     2  C    0.049792   0.048765   0.015890  -0.019755   0.015878   0.048797
     3  C   -0.026554  -0.062503  -0.026714   0.017255  -0.006310  -0.007894
     4  C    0.006446  -0.007651   0.005511   0.006391   0.001791  -0.001232
     5  C   -0.007820   0.007608   0.008972  -0.102649   0.008957   0.007612
     6  C    0.006454  -0.001230   0.001791   0.006390   0.005551  -0.007635
     7  H   -0.055546   0.002166   0.000043   0.000013   0.000043   0.002168
     8  F    0.002166   0.019534   0.002501  -0.000137   0.000009   0.000129
     9  F    0.000043   0.002501  -0.000013  -0.001616   0.000053   0.000009
    10  F    0.000013  -0.000137  -0.001616   0.077764  -0.001612  -0.000137
    11  F    0.000043   0.000009   0.000053  -0.001612  -0.000037   0.002500
    12  F    0.002168   0.000129   0.000009  -0.000137   0.002500   0.019560
 Mulliken charges and spin densities:
               1          2
     1  C   -0.275666   0.046106
     2  C    0.290022   0.611515
     3  C   -0.276186   0.045976
     4  C    0.128349  -0.057746
     5  C   -0.007487   0.459412
     6  C    0.128468  -0.057900
     7  H    0.207857  -0.049367
     8  F   -0.222295   0.001303
     9  F   -0.250514   0.000110
    10  F   -0.249709  -0.000828
    11  F   -0.250615   0.000112
    12  F   -0.222225   0.001306
 Sum of Mulliken charges =  -1.00000   1.00000
 Mulliken charges and spin densities with hydrogens summed into heavy atoms:
               1          2
     1  C   -0.275666   0.046106
     2  C    0.497879   0.562148
     3  C   -0.276186   0.045976
     4  C    0.128349  -0.057746
     5  C   -0.007487   0.459412
     6  C    0.128468  -0.057900
     8  F   -0.222295   0.001303
     9  F   -0.250514   0.000110
    10  F   -0.249709  -0.000828
    11  F   -0.250615   0.000112
    12  F   -0.222225   0.001306
 Electronic spatial extent (au):  <R**2>=           1612.6645
 Charge=             -1.0000 electrons
 Dipole moment (field-independent basis, Debye):
    X=              0.4990    Y=             -0.2876    Z=             -0.0000  Tot=              0.5759
 Quadrupole moment (field-independent basis, Debye-Ang):
   XX=            -77.1292   YY=            -78.7419   ZZ=            -63.1207
   XY=             -1.4004   XZ=             -0.0000   YZ=              0.0000
 Traceless Quadrupole moment (field-independent basis, Debye-Ang):
   XX=             -4.1319   YY=             -5.7446   ZZ=              9.8765
   XY=             -1.4004   XZ=             -0.0000   YZ=              0.0000
 Octapole moment (field-independent basis, Debye-Ang**2):
  XXX=             38.3663  YYY=            -16.8134  ZZZ=             -0.0000  XYY=             12.7843
  XXY=            -12.7128  XXZ=             -0.0000  XZZ=              4.9142  YZZ=             -2.8367
  YYZ=             -0.0000  XYZ=              0.0000
 Hexadecapole moment (field-independent basis, Debye-Ang**3):
 XXXX=           -887.2905 YYYY=           -999.4659 ZZZZ=            -74.2577 XXXY=            -53.6705
 XXXZ=             -0.0000 YYYX=            -43.4786 YYYZ=              0.0000 ZZZX=             -0.0000
 ZZZY=              0.0000 XXYY=           -310.5222 XXZZ=           -150.8897 YYZZ=           -159.4784
 XXYZ=              0.0000 YYXZ=             -0.0000 ZZXY=             -7.4372
 N-N= 6.251356942200D+02 E-N=-2.989709602565D+03  KE= 7.265530990108D+02
                          Isotropic Fermi Contact Couplings
        Atom                 a.u.       MegaHertz       Gauss      10(-4) cm-1
     1  C(13)             -0.00563      -6.33303      -2.25978      -2.11247
     2  C(13)              0.01206      13.55308       4.83608       4.52082
     3  C(13)             -0.00565      -6.35353      -2.26710      -2.11931
     4  C(13)             -0.02059     -23.14517      -8.25877      -7.72040
     5  C(13)              0.03067      34.47406      12.30120      11.49931
     6  C(13)             -0.02061     -23.16524      -8.26594      -7.72709
     7  H(1)              -0.00656     -29.33526     -10.46755      -9.78519
     8  F(19)              0.00098       4.11194       1.46724       1.37160
     9  F(19)             -0.00051      -2.13836      -0.76302      -0.71328
    10  F(19)              0.01103      46.40976      16.56016      15.48063
    11  F(19)             -0.00051      -2.15152      -0.76771      -0.71767
    12  F(19)              0.00098       4.12185       1.47078       1.37490
 --------------------------------------------------------
       Center         ----  Spin Dipole Couplings  ----
                      3XX-RR        3YY-RR        3ZZ-RR
 --------------------------------------------------------
     1   Atom       -0.086788     -0.075061      0.161849
     2   Atom       -0.191704     -0.194644      0.386348
     3   Atom       -0.076435     -0.085186      0.161621
     4   Atom       -0.016114     -0.004765      0.020879
     5   Atom       -0.285685     -0.286965      0.572650
     6   Atom       -0.005941     -0.014782      0.020723
     7   Atom        0.008581     -0.018521      0.009940
     8   Atom       -0.029747     -0.035765      0.065512
     9   Atom       -0.001829     -0.006349      0.008177
    10   Atom       -0.188896     -0.161773      0.350669
    11   Atom       -0.010248      0.002150      0.008098
    12   Atom       -0.036155     -0.029436      0.065591
 --------------------------------------------------------
                        XY            XZ            YZ
 --------------------------------------------------------
     1   Atom       -0.001670      0.000000      0.000000
     2   Atom       -0.002551     -0.000000      0.000000
     3   Atom        0.004245      0.000000     -0.000000
     4   Atom       -0.001837     -0.000000     -0.000000
     5   Atom       -0.001120      0.000000     -0.000000
     6   Atom        0.003999      0.000000      0.000000
     7   Atom       -0.023448      0.000000     -0.000000
     8   Atom        0.002128     -0.000000      0.000000
     9   Atom        0.005841      0.000000      0.000000
    10   Atom        0.023432     -0.000000      0.000000
    11   Atom        0.000963     -0.000000     -0.000000
    12   Atom       -0.001547     -0.000000     -0.000000
 --------------------------------------------------------


 ---------------------------------------------------------------------------------
              Anisotropic Spin Dipole Couplings in Principal Axis System
 ---------------------------------------------------------------------------------

       Atom             a.u.   MegaHertz   Gauss  10(-4) cm-1        Axes

              Baa    -0.0870   -11.677    -4.167    -3.895  0.9904  0.1383 -0.0000
     1 C(13)  Bbb    -0.0748   -10.041    -3.583    -3.349 -0.1383  0.9904 -0.0000
              Bcc     0.1618    21.719     7.750     7.245  0.0000  0.0000  1.0000
 
              Baa    -0.1961   -26.317    -9.391    -8.778  0.5004  0.8658  0.0000
     2 C(13)  Bbb    -0.1902   -25.527    -9.109    -8.515  0.8658 -0.5004  0.0000
              Bcc     0.3863    51.844    18.499    17.293 -0.0000  0.0000  1.0000
 
              Baa    -0.0869   -11.662    -4.161    -3.890 -0.3757  0.9267  0.0000
     3 C(13)  Bbb    -0.0747   -10.026    -3.577    -3.344  0.9267  0.3757  0.0000
              Bcc     0.1616    21.688     7.739     7.234  0.0000 -0.0000  1.0000
 
              Baa    -0.0164    -2.201    -0.785    -0.734  0.9878  0.1559  0.0000
     4 C(13)  Bbb    -0.0045    -0.601    -0.214    -0.200 -0.1559  0.9878  0.0000
              Bcc     0.0209     2.802     1.000     0.935 -0.0000 -0.0000  1.0000
 
              Baa    -0.2876   -38.595   -13.772   -12.874  0.5020  0.8649 -0.0000
     5 C(13)  Bbb    -0.2850   -38.249   -13.648   -12.759  0.8649 -0.5020 -0.0000
              Bcc     0.5727    76.844    27.420    25.632  0.0000 -0.0000  1.0000
 
              Baa    -0.0163    -2.190    -0.782    -0.731 -0.3594  0.9332 -0.0000
     6 C(13)  Bbb    -0.0044    -0.591    -0.211    -0.197  0.9332  0.3594 -0.0000
              Bcc     0.0207     2.781     0.992     0.928  0.0000  0.0000  1.0000
 
              Baa    -0.0321   -17.101    -6.102    -5.704  0.4998  0.8661  0.0000
     7 H(1)   Bbb     0.0099     5.304     1.892     1.769 -0.0000  0.0000  1.0000
              Bcc     0.0221    11.798     4.210     3.935  0.8661 -0.4998  0.0000
 
              Baa    -0.0364   -18.302    -6.531    -6.105 -0.3030  0.9530 -0.0000
     8 F(19)  Bbb    -0.0291   -14.600    -5.210    -4.870  0.9530  0.3030  0.0000
              Bcc     0.0655    32.902    11.740    10.975 -0.0000  0.0000  1.0000
 
              Baa    -0.0104    -5.199    -1.855    -1.734 -0.5653  0.8249 -0.0000
     9 F(19)  Bbb     0.0022     1.092     0.390     0.364  0.8249  0.5653 -0.0000
              Bcc     0.0082     4.107     1.465     1.370  0.0000  0.0000  1.0000
 
              Baa    -0.2024  -101.655   -36.273   -33.908  0.8663 -0.4995  0.0000
    10 F(19)  Bbb    -0.1483   -74.460   -26.569   -24.837  0.4995  0.8663 -0.0000
              Bcc     0.3507   176.115    62.842    58.746 -0.0000  0.0000  1.0000
 
              Baa    -0.0103    -5.184    -1.850    -1.729  0.9970 -0.0770  0.0000
    11 F(19)  Bbb     0.0022     1.117     0.399     0.373  0.0770  0.9970  0.0000
              Bcc     0.0081     4.067     1.451     1.357 -0.0000 -0.0000  1.0000
 
              Baa    -0.0365   -18.328    -6.540    -6.114  0.9768  0.2141  0.0000
    12 F(19)  Bbb    -0.0291   -14.613    -5.214    -4.874 -0.2141  0.9768 -0.0000
              Bcc     0.0656    32.941    11.754    10.988 -0.0000 -0.0000  1.0000
 

 ---------------------------------------------------------------------------------

 No NMR shielding tensors so no spin-rotation constants.
 Leave Link  601 at Thu Jan 30 15:02:36 2025, MaxMem=   104857600 cpu:               0.1 elap:               0.1
 (Enter /sw/cluster/pub/apps//g16/l701.exe)
 ... and contract with generalized density number  0.
 Compute integral first derivatives.
 Leave Link  701 at Thu Jan 30 15:02:36 2025, MaxMem=   104857600 cpu:               0.1 elap:               0.1
 (Enter /sw/cluster/pub/apps//g16/l702.exe)
 L702 exits ... SP integral derivatives will be done elsewhere.
 Leave Link  702 at Thu Jan 30 15:02:36 2025, MaxMem=   104857600 cpu:               0.0 elap:               0.0
 (Enter /sw/cluster/pub/apps//g16/l703.exe)
 Integral derivatives from FoFJK, PRISM(SPDF).
 Compute integral first derivatives, UseDBF=F ICtDFT=           0.
 Calling FoFJK, ICntrl=      2127 FMM=F ISym2X=0 I1Cent= 0 IOpClX= 1 NMat=1 NMatS=1 NMatT=0.
 FoFJK:  IHMeth= 1 ICntrl=    2127 DoSepK=F KAlg= 0 I1Cent=           0 FoldK=F
 IRaf=         0 NMat=       1 IRICut=       1 DoRegI=T DoRafI=F ISym2E= 0 IDoP0=0 IntGTp=1.
 FoFCou: FMM=F IPFlag=           0 FMFlag=      100000 FMFlg1=         800
         NFxFlg=           0 DoJE=F BraDBF=F KetDBF=F FulRan=T
         wScrn=  0.000000 ICntrl=      2127 IOpCl=  1 I1Cent=           0 NGrid=           0
         NMat0=    1 NMatS0=      1 NMatT0=    0 NMatD0=    1 NMtDS0=    0 NMtDT0=    0
 Symmetry not used in FoFCou.
 Leave Link  703 at Thu Jan 30 15:02:53 2025, MaxMem=   104857600 cpu:              16.4 elap:              16.4
 (Enter /sw/cluster/pub/apps//g16/l716.exe)
 Dipole        = 1.96306634D-01-1.13169246D-01-4.55330891D-07
 -------------------------------------------------------------------
 Center     Atomic                   Forces (Hartrees/Bohr)
 Number     Number              X              Y              Z
 -------------------------------------------------------------------
      1        6          -0.045349852    0.034904119    0.000000017
      2        6           0.046663685   -0.026919554   -0.000000019
      3        6          -0.052917895    0.021835484    0.000000017
      4        6           0.044483086   -0.027238746    0.000000019
      5        6          -0.002570105    0.001451698   -0.000000050
      6        6           0.045863974   -0.024929437    0.000000019
      7        1          -0.000219237    0.000115260    0.000000013
      8        9           0.002740437   -0.024560195   -0.000000010
      9        9          -0.022621098   -0.010323713   -0.000000010
     10        9          -0.036348343    0.021014761    0.000000027
     11        9          -0.002387449    0.024700568   -0.000000011
     12        9           0.022662796    0.009949755   -0.000000010
 -------------------------------------------------------------------
 Cartesian Forces:  Max     0.052917895 RMS     0.023051185
 Leave Link  716 at Thu Jan 30 15:02:53 2025, MaxMem=   104857600 cpu:               0.0 elap:               0.0
 (Enter /sw/cluster/pub/apps//g16/l103.exe)

 GradGradGradGradGradGradGradGradGradGradGradGradGradGradGradGradGradGrad
 Berny optimization.
 FormGI is forming the generalized inverse of G from B-inverse, IUseBI=4.
 Internal  Forces:  Max     0.041985956 RMS     0.013373999
 Search for a local minimum.
 Step number   1 out of a maximum of   64
 All quantities printed in internal units (Hartrees-Bohrs-Radians)
 RMS Force = .13374D-01 SwitMx=.10000D-02 MixMth= 1
 Mixed Optimization -- RFO/linear search
 Second derivative matrix not updated -- first step.
 ITU=  0
     Eigenvalues ---    0.02246   0.02250   0.02255   0.02256   0.02272
     Eigenvalues ---    0.02290   0.02295   0.02309   0.02321   0.16000
     Eigenvalues ---    0.23496   0.25000   0.25000   0.25000   0.25000
     Eigenvalues ---    0.25000   0.25000   0.25000   0.35682   0.43803
     Eigenvalues ---    0.43815   0.47694   0.47885   0.48209   0.48541
     Eigenvalues ---    0.59475   0.59479   0.60529   0.60537   0.61123
 RFO step:  Lambda=-1.84859965D-02 EMin= 2.24582025D-02
 Linear search not attempted -- first point.
 Iteration  1 RMS(Cart)=  0.02980874 RMS(Int)=  0.00029883
 Iteration  2 RMS(Cart)=  0.00044228 RMS(Int)=  0.00002063
 Iteration  3 RMS(Cart)=  0.00000010 RMS(Int)=  0.00002063
 ITry= 1 IFail=0 DXMaxC= 9.92D-02 DCOld= 1.00D+10 DXMaxT= 3.00D-01 DXLimC= 3.00D+00 Rises=F
 Variable       Old X    -DE/DX   Delta X   Delta X   Delta X     New X
                                 (Linear)    (Quad)   (Total)
    R1        2.61241   0.03640   0.00000   0.07292   0.07295   2.68536
    R2        2.62066  -0.01530   0.00000  -0.03076  -0.03076   2.58991
    R3        2.51355   0.02457   0.00000   0.04006   0.04006   2.55360
    R4        2.61233   0.03643   0.00000   0.07298   0.07301   2.68534
    R5        2.04582  -0.00025   0.00000  -0.00066  -0.00066   2.04516
    R6        2.62057  -0.01526   0.00000  -0.03068  -0.03068   2.58989
    R7        2.51358   0.02452   0.00000   0.03999   0.03999   2.55357
    R8        2.62322   0.03078   0.00000   0.06130   0.06127   2.68449
    R9        2.50518   0.02476   0.00000   0.03970   0.03970   2.54487
   R10        2.62314   0.03079   0.00000   0.06131   0.06128   2.68442
   R11        2.50063   0.04199   0.00000   0.06667   0.06667   2.56730
   R12        2.50524   0.02471   0.00000   0.03962   0.03962   2.54486
    A1        2.11665   0.00400   0.00000   0.01723   0.01726   2.13391
    A2        2.09536  -0.00579   0.00000  -0.02273  -0.02275   2.07261
    A3        2.07118   0.00179   0.00000   0.00550   0.00549   2.07666
    A4        2.07195  -0.01013   0.00000  -0.03798  -0.03791   2.03404
    A5        2.10545   0.00508   0.00000   0.01905   0.01901   2.12446
    A6        2.10578   0.00506   0.00000   0.01893   0.01890   2.12468
    A7        2.11631   0.00406   0.00000   0.01748   0.01751   2.13382
    A8        2.09574  -0.00586   0.00000  -0.02300  -0.02302   2.07272
    A9        2.07114   0.00180   0.00000   0.00553   0.00551   2.07665
   A10        2.08043   0.00484   0.00000   0.01709   0.01706   2.09749
   A11        2.11065   0.00038   0.00000   0.00188   0.00189   2.11254
   A12        2.09211  -0.00522   0.00000  -0.01897  -0.01895   2.07316
   A13        2.10098  -0.00769   0.00000  -0.03120  -0.03127   2.06972
   A14        2.09080   0.00389   0.00000   0.01579   0.01582   2.10662
   A15        2.09140   0.00379   0.00000   0.01541   0.01544   2.10684
   A16        2.08005   0.00492   0.00000   0.01739   0.01735   2.09740
   A17        2.11061   0.00037   0.00000   0.00184   0.00186   2.11247
   A18        2.09253  -0.00529   0.00000  -0.01923  -0.01921   2.07332
    D1       -0.00000  -0.00000   0.00000  -0.00000   0.00000   0.00000
    D2        3.14159   0.00000   0.00000   0.00000   0.00000  -3.14159
    D3        3.14159   0.00000   0.00000   0.00000   0.00000  -3.14159
    D4        0.00000   0.00000   0.00000   0.00000   0.00000   0.00000
    D5        0.00000  -0.00000   0.00000  -0.00000  -0.00000  -0.00000
    D6        3.14159   0.00000   0.00000   0.00000   0.00000  -3.14159
    D7        3.14159  -0.00000   0.00000  -0.00000  -0.00000   3.14159
    D8       -0.00000  -0.00000   0.00000  -0.00000  -0.00000  -0.00000
    D9       -0.00000   0.00000   0.00000   0.00000   0.00000   0.00000
   D10        3.14159  -0.00000   0.00000  -0.00000  -0.00000   3.14159
   D11        3.14159  -0.00000   0.00000  -0.00000  -0.00000   3.14159
   D12        0.00000  -0.00000   0.00000  -0.00000  -0.00000  -0.00000
   D13        0.00000   0.00000   0.00000   0.00000   0.00000   0.00000
   D14        3.14159  -0.00000   0.00000  -0.00000  -0.00000   3.14159
   D15        3.14159   0.00000   0.00000   0.00000   0.00000  -3.14159
   D16       -0.00000   0.00000   0.00000   0.00000   0.00000   0.00000
   D17        0.00000  -0.00000   0.00000  -0.00000  -0.00000  -0.00000
   D18        3.14159   0.00000   0.00000   0.00000   0.00000  -3.14159
   D19        3.14159   0.00000   0.00000   0.00000   0.00000  -3.14159
   D20       -0.00000   0.00000   0.00000   0.00000   0.00000   0.00000
   D21       -0.00000   0.00000   0.00000   0.00000   0.00000   0.00000
   D22        3.14159  -0.00000   0.00000  -0.00000  -0.00000   3.14159
   D23        3.14159  -0.00000   0.00000  -0.00000  -0.00000   3.14159
   D24        0.00000  -0.00000   0.00000  -0.00000  -0.00000  -0.00000
         Item               Value     Threshold  Converged?
 Maximum Force            0.041986     0.000450     NO 
 RMS     Force            0.013374     0.000300     NO 
 Maximum Displacement     0.099246     0.001800     NO 
 RMS     Displacement     0.029713     0.001200     NO 
 Predicted change in Energy=-9.589349D-03
 Lowest energy point so far.  Saving SCF results.
 GradGradGradGradGradGradGradGradGradGradGradGradGradGradGradGradGradGrad

 Leave Link  103 at Thu Jan 30 15:02:53 2025, MaxMem=   104857600 cpu:               0.0 elap:               0.0
 (Enter /sw/cluster/pub/apps//g16/l202.exe)
                          Input orientation:                          
 ---------------------------------------------------------------------
 Center     Atomic      Atomic             Coordinates (Angstroms)
 Number     Number       Type             X           Y           Z
 ---------------------------------------------------------------------
      1          6           0        1.195650    0.705287    0.000000
      2          6           0        1.238548   -0.715096    0.000000
      3          6           0       -0.012959   -1.388170    0.000000
      4          6           0       -1.206150   -0.713934    0.000000
      5          6           0       -1.223696    0.706530   -0.000000
      6          6           0        0.015182    1.401580    0.000000
      7          1           0        2.175874   -1.256108    0.000000
      8          9           0       -0.024425   -2.739413   -0.000000
      9          9           0       -2.378353   -1.376892   -0.000000
     10          9           0       -2.400326    1.385664    0.000000
     11          9           0        0.003396    2.748208   -0.000000
     12          9           0        2.360193    1.390760   -0.000000
 ---------------------------------------------------------------------
                    Distance matrix (angstroms):
                    1          2          3          4          5
     1  C    0.000000
     2  C    1.421030   0.000000
     3  C    2.417291   1.421020   0.000000
     4  C    2.789772   2.444698   1.370510   0.000000
     5  C    2.419346   2.843179   2.419432   1.420573   0.000000
     6  C    1.370521   2.444778   2.789892   2.442755   1.420532
     7  H    2.192694   1.082254   2.192813   3.425206   3.925433
     8  F    3.654387   2.385993   1.351292   2.345003   3.648668
     9  F    4.136298   3.676948   2.365421   1.346690   2.381991
    10  F    3.659775   4.201737   3.659737   2.415443   1.358558
    11  F    2.365374   3.676965   4.136410   3.667346   2.382058
    12  F    1.351308   2.385941   3.654354   4.141079   3.648620
                    6          7          8          9         10
     6  C    0.000000
     7  H    3.425185   0.000000
     8  F    4.141183   2.653585   0.000000
     9  F    3.667276   4.555828   2.719824   0.000000
    10  F    2.415561   5.283991   4.760374   2.762643   0.000000
    11  F    1.346680   4.555678   5.487692   4.763316   2.763043
    12  F    2.345036   2.653278   4.769144   5.487596   4.760522
                   11         12
    11  F    0.000000
    12  F    2.719771   0.000000
 Symmetry turned off by external request.
 Stoichiometry    C6HF5(1-,2)
 Framework group  C1[X(C6HF5)]
 Deg. of freedom    30
 Full point group                 C1      NOp   1
 Rotational constants (GHZ):           1.4502728           1.0058334           0.5939209
 Leave Link  202 at Thu Jan 30 15:02:53 2025, MaxMem=   104857600 cpu:               0.0 elap:               0.0
 (Enter /sw/cluster/pub/apps//g16/l301.exe)
 Standard basis: 6-311++G(d,p) (5D, 7F)
 Ernie: Thresh=  0.10000D-02 Tol=  0.10000D-05 Strict=F.
   249 basis functions,   405 primitive gaussians,   260 cartesian basis functions
    42 alpha electrons       41 beta electrons
       nuclear repulsion energy       616.4104249432 Hartrees.
 IExCor= 1009 DFT=T Ex+Corr=PBE1PBE ExCW=0 ScaHFX=  0.250000
 ScaDFX=  0.750000  0.750000  1.000000  1.000000 ScalE2=  1.000000  1.000000
 IRadAn=      5 IRanWt=     -1 IRanGd=            0 ICorTp=0 IEmpDi=  4
 NAtoms=   12 NActive=   12 NUniq=   12 SFac= 1.00D+00 NAtFMM=   60 NAOKFM=F Big=F
 Integral buffers will be    131072 words long.
 Raffenetti 2 integral format.
 Two-electron integral symmetry is turned off.
 Leave Link  301 at Thu Jan 30 15:02:53 2025, MaxMem=   104857600 cpu:               0.0 elap:               0.0
 (Enter /sw/cluster/pub/apps//g16/l302.exe)
 NPDir=0 NMtPBC=     1 NCelOv=     1 NCel=       1 NClECP=     1 NCelD=      1
         NCelK=      1 NCelE2=     1 NClLst=     1 CellRange=     0.0.
 One-electron integrals computed using PRISM.
 NBasis=   249 RedAO= T EigKep=  2.06D-06  NBF=   249
 NBsUse=   249 1.00D-06 EigRej= -1.00D+00 NBFU=   249
 Precomputing XC quadrature grid using
 IXCGrd= 4 IRadAn=           5 IRanWt=          -1 IRanGd=           0 AccXCQ= 0.00D+00.
 Generated NRdTot=       0 NPtTot=           0 NUsed=           0 NTot=          32
 NSgBfM=   260   260   260   260   260 MxSgAt=    12 MxSgA2=    12.
 Leave Link  302 at Thu Jan 30 15:02:53 2025, MaxMem=   104857600 cpu:               0.1 elap:               0.1
 (Enter /sw/cluster/pub/apps//g16/l303.exe)
 DipDrv:  MaxL=1.
 Leave Link  303 at Thu Jan 30 15:02:53 2025, MaxMem=   104857600 cpu:               0.0 elap:               0.0
 (Enter /sw/cluster/pub/apps//g16/l401.exe)
 Initial guess from the checkpoint file:  "PFB-ANI.chk"
 B after Tr=    -0.006768    0.003937   -0.000000
         Rot=    1.000000   -0.000000   -0.000000   -0.000002 Ang=  -0.00 deg.
 Guess basis will be translated and rotated to current coordinates.
 JPrj=2 DoOrth=T DoCkMO=T.
 Initial guess <Sx>= 0.0000 <Sy>= 0.0000 <Sz>= 0.5000 <S**2>= 0.7590 S= 0.5045
 Generating alternative initial guess.
 ExpMin= 3.60D-02 ExpMax= 1.14D+04 ExpMxC= 1.72D+03 IAcc=3 IRadAn=         5 AccDes= 0.00D+00
 Harris functional with IExCor= 1009 and IRadAn=       5 diagonalized for initial guess.
 HarFok:  IExCor= 1009 AccDes= 0.00D+00 IRadAn=         5 IDoV= 1 UseB2=F ITyADJ=14
 ICtDFT=  3500011 ScaDFX=  1.000000  1.000000  1.000000  1.000000
 FoFCou: FMM=F IPFlag=           0 FMFlag=      100000 FMFlg1=           0
         NFxFlg=           0 DoJE=T BraDBF=F KetDBF=T FulRan=T
         wScrn=  0.000000 ICntrl=       500 IOpCl=  0 I1Cent=   200000004 NGrid=           0
         NMat0=    1 NMatS0=      1 NMatT0=    0 NMatD0=    1 NMtDS0=    0 NMtDT0=    0
 Symmetry not used in FoFCou.
 Harris En= -728.012508793127    
 Leave Link  401 at Thu Jan 30 15:02:54 2025, MaxMem=   104857600 cpu:               1.4 elap:               1.4
 (Enter /sw/cluster/pub/apps//g16/l502.exe)
 Two-electron integral symmetry not used.
 UHF open shell SCF:
 Using DIIS extrapolation, IDIIS=  1040.
 NGot=   104857600 LenX=   104719020 LenY=   104650979
 Requested convergence on RMS density matrix=1.00D-08 within 128 cycles.
 Requested convergence on MAX density matrix=1.00D-06.
 Requested convergence on             energy=1.00D-06.
 No special actions if energy rises.
 Fock matrices will be formed incrementally for  20 cycles.

 Cycle   1  Pass 1  IDiag  1:
 FoFJK:  IHMeth= 1 ICntrl=       0 DoSepK=F KAlg= 0 I1Cent=           0 FoldK=F
 IRaf= 910000000 NMat=       1 IRICut=       1 DoRegI=T DoRafI=F ISym2E= 0 IDoP0=0 IntGTp=1.
 FoFCou: FMM=F IPFlag=           0 FMFlag=      100000 FMFlg1=           0
         NFxFlg=           0 DoJE=F BraDBF=F KetDBF=F FulRan=T
         wScrn=  0.000000 ICntrl=         0 IOpCl=  1 I1Cent=           0 NGrid=           0
         NMat0=    1 NMatS0=      1 NMatT0=    0 NMatD0=    1 NMtDS0=    0 NMtDT0=    0
 Symmetry not used in FoFCou.
 E= -727.861073010372    
 DIIS: error= 4.37D-03 at cycle   1 NSaved=   1.
 NSaved= 1 IEnMin= 1 EnMin= -727.861073010372     IErMin= 1 ErrMin= 4.37D-03
 ErrMax= 4.37D-03  0.00D+00 EMaxC= 1.00D-01 BMatC= 2.23D-02 BMatP= 2.23D-02
 IDIUse=3 WtCom= 9.56D-01 WtEn= 4.37D-02
 Coeff-Com:  0.100D+01
 Coeff-En:   0.100D+01
 Coeff:      0.100D+01
 Gap=     0.275 Goal=   None    Shift=    0.000
 Gap=     0.423 Goal=   None    Shift=    0.000
 GapD=    0.275 DampG=1.000 DampE=1.000 DampFc=1.0000 IDamp=-1.
 RMSDP=1.41D-02 MaxDP=5.25D-01              OVMax= 3.39D-02

 Cycle   2  Pass 1  IDiag  1:
 RMSU=  1.41D-02    CP:  9.95D-01
 E= -727.866629646784     Delta-E=       -0.005556636411 Rises=F Damp=F
 DIIS: error= 1.81D-03 at cycle   2 NSaved=   2.
 NSaved= 2 IEnMin= 2 EnMin= -727.866629646784     IErMin= 2 ErrMin= 1.81D-03
[...]
   D22        2.96901   0.00000   0.00000  -0.00021  -0.00021   2.96880
   D23        2.45764  -0.00002   0.00000  -0.00115  -0.00115   2.45649
   D24       -0.81885  -0.00002   0.00000  -0.00104  -0.00104  -0.81989
         Item               Value     Threshold  Converged?
 Maximum Force            0.000090     0.000450     YES
 RMS     Force            0.000026     0.000300     YES
 Maximum Displacement     0.001691     0.001800     YES
 RMS     Displacement     0.000394     0.001200     YES
 Predicted change in Energy=-1.259083D-07
 Optimization completed.
    -- Stationary point found.
                           ----------------------------
                           !   Optimized Parameters   !
                           ! (Angstroms and Degrees)  !
 --------------------------                            --------------------------
 ! Name  Definition              Value          Derivative Info.                !
 --------------------------------------------------------------------------------
 ! R1    R(1,2)                  1.3972         -DE/DX =    0.0                 !
 ! R2    R(1,6)                  1.3693         -DE/DX =    0.0                 !
 ! R3    R(1,12)                 1.3649         -DE/DX =    0.0001              !
 ! R4    R(2,3)                  1.3973         -DE/DX =    0.0                 !
 ! R5    R(2,7)                  1.0826         -DE/DX =    0.0                 !
 ! R6    R(3,4)                  1.3693         -DE/DX =    0.0                 !
 ! R7    R(3,8)                  1.3649         -DE/DX =    0.0001              !
 ! R8    R(4,5)                  1.4081         -DE/DX =    0.0001              !
 ! R9    R(4,9)                  1.3705         -DE/DX =    0.0                 !
 ! R10   R(5,6)                  1.4081         -DE/DX =    0.0001              !
 ! R11   R(5,10)                 1.4271         -DE/DX =    0.0                 !
 ! R12   R(6,11)                 1.3705         -DE/DX =    0.0                 !
 ! A1    A(2,1,6)              122.4882         -DE/DX =    0.0                 !
 ! A2    A(2,1,12)             118.1088         -DE/DX =    0.0                 !
 ! A3    A(6,1,12)             119.3039         -DE/DX =    0.0                 !
 ! A4    A(1,2,3)              115.8127         -DE/DX =    0.0                 !
 ! A5    A(1,2,7)              121.9784         -DE/DX =    0.0                 !
 ! A6    A(3,2,7)              121.9772         -DE/DX =    0.0                 !
 ! A7    A(2,3,4)              122.4887         -DE/DX =    0.0                 !
 ! A8    A(2,3,8)              118.1085         -DE/DX =    0.0                 !
 ! A9    A(4,3,8)              119.3037         -DE/DX =    0.0                 !
 ! A10   A(3,4,5)              121.4631         -DE/DX =    0.0                 !
 ! A11   A(3,4,9)              118.8146         -DE/DX =    0.0                 !
 ! A12   A(5,4,9)              119.2794         -DE/DX =    0.0                 !
 ! A13   A(4,5,6)              116.1066         -DE/DX =    0.0                 !
 ! A14   A(4,5,10)             116.4655         -DE/DX =    0.0                 !
 ! A15   A(6,5,10)             116.465          -DE/DX =    0.0                 !
 ! A16   A(1,6,5)              121.4636         -DE/DX =    0.0                 !
 ! A17   A(1,6,11)             118.8142         -DE/DX =    0.0                 !
 ! A18   A(5,6,11)             119.2792         -DE/DX =    0.0                 !
 ! D1    D(6,1,2,3)              4.2351         -DE/DX =    0.0                 !
 ! D2    D(6,1,2,7)           -170.3348         -DE/DX =    0.0                 !
 ! D3    D(12,1,2,3)          -172.1168         -DE/DX =    0.0                 !
 ! D4    D(12,1,2,7)            13.3134         -DE/DX =    0.0                 !
 ! D5    D(2,1,6,5)             -1.1065         -DE/DX =    0.0                 !
 ! D6    D(2,1,6,11)          -173.4124         -DE/DX =    0.0                 !
 ! D7    D(12,1,6,5)           175.2034         -DE/DX =    0.0                 !
 ! D8    D(12,1,6,11)            2.8975         -DE/DX =    0.0                 !
 ! D9    D(1,2,3,4)             -4.2348         -DE/DX =    0.0                 !
 ! D10   D(1,2,3,8)            172.1178         -DE/DX =    0.0                 !
 ! D11   D(7,2,3,4)            170.3351         -DE/DX =    0.0                 !
 ! D12   D(7,2,3,8)            -13.3124         -DE/DX =    0.0                 !
 ! D13   D(2,3,4,5)              1.106          -DE/DX =    0.0                 !
 ! D14   D(2,3,4,9)            173.4127         -DE/DX =    0.0                 !
 ! D15   D(8,3,4,5)           -175.2046         -DE/DX =    0.0                 !
 ! D16   D(8,3,4,9)             -2.8979         -DE/DX =    0.0                 !
 ! D17   D(3,4,5,6)              2.1595         -DE/DX =    0.0                 !
 ! D18   D(3,4,5,10)          -140.8121         -DE/DX =    0.0                 !
 ! D19   D(9,4,5,6)           -170.1123         -DE/DX =    0.0                 !
 ! D20   D(9,4,5,10)            46.9161         -DE/DX =    0.0                 !
 ! D21   D(4,5,6,1)             -2.1592         -DE/DX =    0.0                 !
 ! D22   D(4,5,6,11)           170.1117         -DE/DX =    0.0                 !
 ! D23   D(10,5,6,1)           140.8126         -DE/DX =    0.0                 !
 ! D24   D(10,5,6,11)          -46.9165         -DE/DX =    0.0                 !
 --------------------------------------------------------------------------------
 GradGradGradGradGradGradGradGradGradGradGradGradGradGradGradGradGradGrad

 Leave Link  103 at Thu Jan 30 15:39:31 2025, MaxMem=   104857600 cpu:               0.0 elap:               0.0
 (Enter /sw/cluster/pub/apps//g16/l9999.exe)

 ----------------------------------------------------------------------

 Electric dipole moment (input orientation):
 (Debye = 10**-18 statcoulomb cm , SI units = C m)
                  (au)            (Debye)         (10**-30 SI)
   Tot        0.148691D+01      0.377934D+01      0.126065D+02
   x          0.128559D+01      0.326765D+01      0.108997D+02
   y         -0.742250D+00     -0.188661D+01     -0.629306D+01
   z          0.849104D-01      0.215821D+00      0.719901D+00

 Dipole polarizability, Alpha (input orientation).
 (esu units = cm**3 , SI units = C**2 m**2 J**-1)
 Alpha(0;0):
               (au)            (10**-24 esu)      (10**-40 SI)
   iso        0.937880D+02      0.138979D+02      0.154636D+02
   aniso      0.555604D+02      0.823320D+01      0.916066D+01
   xx         0.115313D+03      0.170876D+02      0.190125D+02
   yx        -0.599191D+01     -0.887910D+00     -0.987933D+00
   yy         0.108387D+03      0.160613D+02      0.178706D+02
   zx         0.134898D+01      0.199898D+00      0.222416D+00
   zy        -0.775930D+00     -0.114981D+00     -0.127933D+00
   zz         0.576648D+02      0.854503D+01      0.950763D+01

 ----------------------------------------------------------------------

 Dipole orientation:
     6          1.17917948          1.90218844          1.25666207
     6         -0.01856845          0.01075818          2.65655567
     6         -1.05775093         -1.97225756          1.25669056
     6         -1.06158676         -1.99432608         -1.33089644
     6          0.03180619         -0.01839927         -2.73829412
     6          1.19633417          1.91649454         -1.33092511
     1         -0.27573478          0.15922811          4.68062358
     9         -1.97297542         -4.01519892          2.53793113
     9         -1.88275447         -4.12108606         -2.55988517
     9         -1.28414894          0.74136407         -4.96638098
     9          2.62759329          3.69098963         -2.55995292
     9          2.49086392          3.71625787          2.53785280

 Electric dipole moment (dipole orientation):
 (Debye = 10**-18 statcoulomb cm , SI units = C m)
                  (au)            (Debye)         (10**-30 SI)
   Tot        0.148691D+01      0.377934D+01      0.126065D+02
   x          0.000000D+00      0.000000D+00      0.000000D+00
   y          0.000000D+00      0.000000D+00      0.000000D+00
   z          0.148691D+01      0.377934D+01      0.126065D+02

 Dipole polarizability, Alpha (dipole orientation).
 (esu units = cm**3 , SI units = C**2 m**2 J**-1)
 Alpha(0;0):
               (au)            (10**-24 esu)      (10**-40 SI)
   iso        0.937880D+02      0.138979D+02      0.154636D+02
   aniso      0.555604D+02      0.823320D+01      0.916066D+01
   xx         0.694954D+02      0.102982D+02      0.114583D+02
   yx         0.204556D+02      0.303120D+01      0.337267D+01
   yy         0.931202D+02      0.137990D+02      0.153534D+02
   zx         0.167971D+01      0.248908D+00      0.276947D+00
   zy        -0.966035D+00     -0.143152D+00     -0.159278D+00
   zz         0.118748D+03      0.175967D+02      0.195790D+02

 ----------------------------------------------------------------------
 1\1\GINC-N02\Freq\UPBE1PBE\6-311++G(d,p)\C6H1F5(1-,2)\UNKNOWN\30-Jan-2
 025\0\\#P Geom=AllCheck Guess=TCheck SCRF=Check GenChk UPBE1PBE/6-311+
 +G(d,p) Freq\\PFB SP\\-1,2\C,1.1686707796,0.6921208789,0.0009457193\C,
 1.214904088,-0.7014168049,0.091615579\C,-0.0150557216,-1.3581511701,0.
 000938093\C,-1.2043199653,-0.6843680311,-0.081330417\C,-1.2519015481,0
 .7227786289,-0.1021607733\C,-0.0094818337,1.3851503686,-0.0813178964\H
 ,2.1332054011,-1.231610962,0.3096620275\F,-0.0120646705,-2.7205805972,
 -0.0812640729\F,-2.3533715622,-1.3972726171,-0.3045642697\F,-2.3110909
 297,1.3343033579,0.6332986755\F,0.0333818633,2.7367112506,-0.304552649
 3\F,2.350058622,1.3707525225,-0.0812700157\\Version=ES64L-G16RevA.03\H
 F=-727.8920988\S2=0.76055\S2-1=0.\S2A=0.750065\RMSD=2.526e-09\RMSF=4.6
 86e-05\ZeroPoint=0.055835\Thermal=0.0650888\Dipole=0.84571,-0.4882825,
 0.0396638\DipoleDeriv=1.4105028,0.37351,-0.101281,0.2118398,0.8790815,
 0.0494378,-0.1932931,-0.0456321,-0.0107807,-0.6065086,-0.0065171,0.100
 847,-0.0065349,-0.6140853,-0.0582022,0.2087739,-0.1204948,-0.2764482,0
 .7584247,-0.1645989,-0.0932553,-0.0028866,1.5311882,0.0627638,-0.05706
 9,0.1901334,-0.0107866,0.7249221,0.729481,0.2514439,1.0227893,0.356998
 1,-0.0612616,0.4680665,0.2907567,-0.0074298,0.8798798,-0.7338073,-0.48
 15583,-0.7338613,0.0324879,0.2781255,-1.0039496,0.5796886,0.1130891,-0
 .3098236,0.4254434,0.1789256,0.1321759,1.3917202,-0.1873994,-0.0178499
 ,-0.5507554,-0.0075324,-0.0336288,0.0678726,-0.0610778,0.067905,0.0447
 767,0.035271,-0.2048087,0.1182411,0.1854105,-0.2054988,0.0359138,-0.00
 87323,0.0571245,-1.5298765,-0.018252,0.0761838,-0.1565646,-0.1429069,-
 1.0754034,-0.6545233,-0.0666454,-0.6153958,-0.5825398,-0.0398592,-0.29
 78222,-0.2208964,-0.1405448,-1.1479573,0.5513193,0.2686075,0.5513394,-
 0.5113302,-0.1550932,0.8056409,-0.4651359,-0.418602,-0.1558377,-0.0844
 993,0.0011925,-0.1236707,-1.5021216,0.077732,0.0424124,0.368347,-0.140
 5503,-1.2390711,-0.5395943,0.0115336,-0.5608247,-0.4962991,0.0167376,0
 .1737151,0.0123125,-0.142918\Polar=115.3125701,-5.9919148,108.3867232,
 1.3489784,-0.7759295,57.6647515\Quadrupole=-3.3963431,-5.0507635,8.447
 1066,-1.4327121,1.0276953,-0.5933268\PG=C01 [X(C6H1F5)]\NImag=0\\0.666
 09682,-0.06404143,0.67673956,0.02170950,-0.06655319,0.13087563,-0.1095
 0188,0.05129092,-0.00545316,0.70617499,-0.01082985,-0.31910907,0.03118
 224,-0.03128686,0.67010012,-0.00641843,0.02180420,-0.04955252,0.085911
 61,-0.04959407,0.09130878,0.03447266,-0.07347405,-0.00194129,-0.284195
 69,-0.04958468,-0.02210276,0.72946254,-0.02987575,-0.02521526,0.002319
 92,-0.11169783,-0.14438862,-0.00534568,-0.02741955,0.61332779,-0.00297
 626,0.00051965,-0.00341094,-0.02973073,-0.01087154,-0.04954860,0.06849
 568,0.01448186,0.13087330,-0.02246551,0.02763364,0.00225093,-0.0477248
 5,-0.01833997,-0.00355389,-0.31921557,0.16663857,-0.01791407,0.6686894
 2,0.01289503,-0.02417367,0.00438925,0.02257827,0.03443660,-0.00054270,
 0.09100974,-0.15999016,-0.00428084,-0.08322451,0.62921782,-0.00368734,
 -0.00363698,0.00339243,0.00813168,0.00866887,0.00489638,-0.03568513,0.
 00712938,-0.04681347,0.04578372,0.02660443,0.10864282,-0.04226139,0.01
 686920,-0.01438806,0.00336733,-0.02103458,-0.00011865,0.01198282,0.020
 62663,0.00346607,-0.07764570,0.00149853,0.00409728,0.45006284,-0.01067
 764,0.03362155,-0.01230851,-0.02103284,-0.02093154,0.00006530,0.048173
 31,-0.02061058,0.01861286,-0.00139064,-0.28775383,0.00381006,0.1024435
 4,0.56840683,0.00923818,0.00118386,-0.00523864,-0.00332397,0.00192251,
 0.00668270,0.00359070,-0.00858991,-0.00524237,-0.00564665,-0.00863508,
 -0.05127358,-0.04976734,0.02873139,0.12824933,-0.31135337,0.09555124,-
 0.00524970,0.01206899,0.05709142,-0.00130784,-0.04129557,0.00203011,-0
 .00268327,0.02325043,-0.02747690,-0.00020888,-0.23526647,-0.08950607,0
 .00465626,0.71112465,0.17119200,-0.16784773,0.01765424,0.01616782,-0.0
 2533890,0.00335455,0.01676224,-0.00533874,-0.00414085,-0.03563439,-0.0
 1319466,-0.01007776,-0.09239119,-0.13014383,0.00921335,-0.05871304,0.5
 8675290,-0.02402762,0.02735093,-0.04681274,-0.00344261,-0.01138479,0.0
 0489723,0.00130566,0.00500942,0.00339484,0.00861769,0.00522216,-0.0015
 4056,-0.00123634,-0.00545062,-0.05126208,-0.00014577,-0.05295812,0.108
 62694,0.00145087,-0.00228083,0.00048155,-0.26269171,0.12031827,-0.0526
 2880,-0.01642350,0.01680454,-0.00479336,-0.00181486,-0.00410819,-0.001
 65284,-0.00073799,0.00044581,-0.00064285,0.00109974,-0.00043492,-0.000
 79154,0.27663889,0.02712157,-0.00803580,0.00581145,0.12031814,-0.12376
 868,0.03038677,-0.01259864,0.00983467,-0.00332302,-0.00211575,-0.00152
 345,-0.00003973,0.00044596,-0.00022272,0.00037118,-0.00242636,-0.00443
 648,0.00145076,-0.13202950,0.12419105,0.00192910,-0.00015547,0.0006423
 4,-0.05694118,0.03287642,-0.02501033,0.00109655,-0.00159351,0.00064232
 ,-0.00171389,0.00191732,0.00263640,0.00087873,-0.00050710,-0.00687541,
 -0.00251773,0.00052586,0.00263643,0.05738218,-0.03312970,0.02555467,-0
 .00761546,0.00452740,-0.00104879,0.00679602,-0.04160799,-0.00141851,-0
 .07193582,-0.00068261,-0.00439032,0.00181457,0.03291113,0.00312760,-0.
 00465603,0.00158794,-0.00070749,0.00219927,-0.00211919,0.00032808,0.00
 211996,0.00148309,0.00099972,0.06454496,0.00226494,-0.00402155,-0.0047
 1772,-0.00364100,-0.03631752,-0.00193611,0.00239236,-0.26718466,-0.009
 07922,-0.00566413,-0.04660243,-0.01043429,0.00212863,-0.00439546,0.009
 39443,-0.00254031,0.00481790,-0.00164998,0.00030268,0.00187381,0.00174
 244,0.00194055,0.35140085,0.00087081,-0.00283653,0.00375386,0.00633060
 ,0.00175895,0.00449336,-0.01336533,-0.01520885,-0.03537859,0.00092778,
 0.00280871,0.00165294,-0.00396874,-0.00873456,0.01131071,0.00244400,0.
 00366731,0.00136015,0.00124844,0.00004821,-0.00302480,0.00283243,0.016
 29676,0.02042903,0.00154722,0.00444138,-0.00082326,-0.00796757,0.00002
 667,0.00081763,-0.04167267,-0.03313290,-0.01534143,-0.20685530,-0.0670
 8669,-0.02443156,-0.01157113,-0.02027184,0.01215686,-0.00178665,0.0039
 1084,-0.00808514,-0.00102579,-0.00118862,0.00061158,0.00544112,0.00288
 123,0.00275760,0.25746860,0.00115645,0.00169713,-0.00073519,-0.0040304
 9,-0.00394536,0.00136595,0.00940256,-0.00014438,-0.00189699,-0.0862855
 8,-0.10077282,-0.01260446,-0.03902458,-0.03249117,0.00154876,-0.000855
 67,-0.00370439,-0.00557024,0.00043809,0.00020373,-0.00075234,0.0031780
 5,0.00957626,0.00210303,0.11702584,0.12931706,0.00181803,0.00375682,-0
 .00012105,-0.00996935,-0.00652296,0.00553916,0.00520780,-0.00145061,-0
 .00159295,-0.03479859,-0.01704250,-0.02837022,0.00470793,0.00118470,0.
 00843779,-0.00542344,0.00074553,-0.00119048,0.00032791,0.00003103,0.00
 066021,0.00084226,0.00246675,-0.00091858,0.03682852,0.01734155,0.01986
 570,0.00899636,-0.01125641,0.00482417,-0.00716235,0.00753059,0.0006296
 7,0.00744604,-0.00523713,0.00208155,-0.01966623,0.02369496,0.00215109,
 -0.08561984,0.02217655,0.03420036,-0.05286799,0.01671070,0.01817616,-0
 .00000046,0.00008355,-0.00167587,0.00014957,0.00285028,0.00128999,0.00
 990987,0.00233012,0.00022136,0.13735425,-0.00433937,-0.00207623,0.0003
 8271,0.00752973,0.00153201,-0.00036306,-0.01215421,-0.00052310,-0.0043
 6941,0.03588409,-0.02953815,-0.01974785,0.02217719,-0.06002105,-0.0197
 5021,0.00452554,0.00366902,0.00801181,0.00008354,0.00009600,0.00096758
 ,0.00076399,-0.00125360,0.00048285,-0.00124302,0.00256550,0.00201422,-
 0.05343964,0.07564667,-0.00880373,0.00317196,0.00344583,0.00618010,-0.
 00356808,-0.00374036,-0.00714914,0.00603819,0.00344386,0.01135913,-0.0
 1081384,0.00660565,0.04942333,-0.02853950,-0.05453763,0.01504615,-0.00
 442933,0.00660625,0.00034863,-0.00020119,0.00450167,-0.00041951,-0.003
 72528,-0.00359307,-0.00659194,-0.00159230,-0.00387749,-0.06049467,0.03
 493054,0.04862036,-0.00025238,0.03332015,-0.00602916,-0.00321729,-0.00
 128825,-0.00077376,-0.00076476,-0.00017762,0.00022502,-0.00454769,-0.0
 0244961,0.00078113,-0.00158188,-0.03326021,0.00473672,-0.06087820,-0.0
 0201119,-0.00130295,0.00022141,0.00115815,0.00095742,0.00030643,-0.000
 31934,-0.00048907,0.00086163,-0.00032756,0.00085359,0.00392821,-0.0011
 2685,-0.00191472,0.06000716,-0.00921854,-0.04157429,0.01423717,0.00276
 968,-0.00869435,-0.00139245,0.00310589,0.00400914,0.00108024,0.0023192
 9,-0.00094178,0.00978750,-0.01450946,-0.04247642,-0.01130593,0.0171888
 1,-0.24674079,0.02745780,-0.00046849,-0.00104346,-0.00015360,-0.000012
 90,-0.00609338,-0.00033758,-0.00266193,-0.00086423,-0.00187775,-0.0046
 9670,0.00853928,0.00650304,0.00302585,0.32677952,0.00385890,-0.0037834
 7,-0.00159392,0.00066527,0.01189557,0.00553893,-0.00234486,-0.00345360
 ,-0.00012085,-0.00335746,0.00432306,-0.00118939,0.00132600,-0.00466868
 ,0.00843857,-0.00264072,0.03865271,-0.02836801,0.00013692,-0.00029945,
 0.00066039,0.00025215,0.00085687,-0.00141073,0.00205309,0.00019983,0.0
 0297856,-0.00163096,-0.00120040,-0.00388175,0.00339832,-0.04055615,0.0
 1986634,-0.21911395,-0.08258123,0.00566727,-0.00594597,-0.01099476,0.0
 0096374,-0.00786049,0.00212353,0.00356113,0.00618129,-0.00024177,0.001
 59326,-0.00607257,0.00131210,-0.00849079,-0.04629483,-0.03343968,0.010
 60438,0.00116345,-0.00025160,-0.00100661,0.00083542,-0.00259587,-0.000
 87852,-0.00434933,-0.00300721,-0.00061602,-0.00246742,0.00133900,0.003
 01639,0.00591736,0.00315850,-0.00171666,0.27800704,-0.08564742,-0.1200
 0464,0.00833763,-0.04896554,-0.02357469,0.00219730,0.00438503,-0.00377
 612,0.00326726,0.00017938,0.00083652,0.00054081,0.00077013,-0.00298179
 ,-0.00408434,0.00513123,0.00150569,0.00251086,0.00092902,0.00283134,-0
 .00173791,-0.00196947,-0.00180022,-0.00004831,-0.00270096,-0.00143733,
 -0.00064677,-0.00074686,0.00136366,0.00222579,0.00345648,0.00910075,-0
 .00196629,0.12517898,0.13793682,0.00648886,0.01917822,-0.03538027,0.00
 164172,-0.00636312,0.00449529,0.00289213,0.00066340,0.00375344,-0.0019
 5469,-0.00394998,0.00136060,0.00557979,0.00780467,0.01131061,-0.001969
 05,-0.00220749,0.00165204,0.00058375,-0.00110632,-0.00302388,-0.000397
 62,0.00078536,0.00132572,0.00004805,0.00059239,-0.00141064,0.00022716,
 -0.00135880,-0.00359331,-0.00044253,-0.00344229,-0.00091814,-0.0126975
 8,-0.01059605,0.02042855\\0.00005889,0.00007940,0.00001424,0.00005564,
 -0.00003195,-0.00003073,-0.00003952,-0.00009131,0.00001412,-0.00002775
 ,0.00009250,-0.00001685,0.00010180,-0.00005918,0.00003319,-0.00009287,
 -0.00002205,-0.00001716,-0.00000959,0.00000493,0.00001527,-0.00000427,
 0.00009075,-0.00001011,0.00002797,-0.00000777,0.00001593,-0.00001139,0
 .00000732,-0.00002275,0.00002119,-0.00002053,0.00001560,-0.00008009,-0
 .00004213,-0.00001076\\\@


 A successful marriage requires falling in love
 many times, always with the same person.
                           -- Mignon McLaughlin
 Job cpu time:       0 days  0 hours  9 minutes 44.3 seconds.
 Elapsed time:       0 days  0 hours  9 minutes 45.7 seconds.
 File lengths (MBytes):  RWF=    179 Int=      0 D2E=      0 Chk=      8 Scr=      1
 Normal termination of Gaussian 16 at Thu Jan 30 15:39:31 2025.
