 Entering Gaussian System, Link 0=g16
 Initial command:
 /sw/cluster/pub/apps//g16/l1.exe "/data/natrosa/28479/Gau-92880.inp" -scrdir="/data/natrosa/28479/"
 Entering Link 1 = /sw/cluster/pub/apps//g16/l1.exe PID=     92881.
  
 Copyright (c) 1988,1990,1992,1993,1995,1998,2003,2009,2016,
            Gaussian, Inc.  All Rights Reserved.
  
 This is part of the Gaussian(R) 16 program.  It is based on
 the Gaussian(R) 09 system (copyright 2009, Gaussian, Inc.),
 the Gaussian(R) 03 system (copyright 2003, Gaussian, Inc.),
 the Gaussian(R) 98 system (copyright 1998, Gaussian, Inc.),
 the Gaussian(R) 94 system (copyright 1995, Gaussian, Inc.),
 the Gaussian 92(TM) system (copyright 1992, Gaussian, Inc.),
 the Gaussian 90(TM) system (copyright 1990, Gaussian, Inc.),
 the Gaussian 88(TM) system (copyright 1988, Gaussian, Inc.),
 the Gaussian 86(TM) system (copyright 1986, Carnegie Mellon
 University), and the Gaussian 82(TM) system (copyright 1983,
 Carnegie Mellon University). Gaussian is a federally registered
 trademark of Gaussian, Inc.
  
 This software contains proprietary and confidential information,
 including trade secrets, belonging to Gaussian, Inc.
  
 This software is provided under written license and may be
 used, copied, transmitted, or stored only in accord with that
 written license.
  
 The following legend is applicable only to US Government
 contracts under FAR:
  
                    RESTRICTED RIGHTS LEGEND
  
 Use, reproduction and disclosure by the US Government is
 subject to restrictions as set forth in subparagraphs (a)
 and (c) of the Commercial Computer Software - Restricted
 Rights clause in FAR 52.227-19.
  
 Gaussian, Inc.
 340 Quinnipiac St., Bldg. 40, Wallingford CT 06492
  
  
 ---------------------------------------------------------------
 Warning -- This program may not be used in any manner that
 competes with the business of Gaussian, Inc. or will provide
 assistance to any competitor of Gaussian, Inc.  The licensee
 of this program is prohibited from giving any competitor of
 Gaussian, Inc. access to this program.  By using this program,
 the user acknowledges that Gaussian, Inc. is engaged in the
 business of creating and licensing software in the field of
 computational chemistry and represents and warrants to the
 licensee that it is not a competitor of Gaussian, Inc. and that
 it will not use this program in any manner prohibited above.
 ---------------------------------------------------------------
  

 Cite this work as:
 Gaussian 16, Revision A.03,
 M. J. Frisch, G. W. Trucks, H. B. Schlegel, G. E. Scuseria, 
 M. A. Robb, J. R. Cheeseman, G. Scalmani, V. Barone, 
 G. A. Petersson, H. Nakatsuji, X. Li, M. Caricato, A. V. Marenich, 
 J. Bloino, B. G. Janesko, R. Gomperts, B. Mennucci, H. P. Hratchian, 
 J. V. Ortiz, A. F. Izmaylov, J. L. Sonnenberg, D. Williams-Young, 
 F. Ding, F. Lipparini, F. Egidi, J. Goings, B. Peng, A. Petrone, 
 T. Henderson, D. Ranasinghe, V. G. Zakrzewski, J. Gao, N. Rega, 
 G. Zheng, W. Liang, M. Hada, M. Ehara, K. Toyota, R. Fukuda, 
 J. Hasegawa, M. Ishida, T. Nakajima, Y. Honda, O. Kitao, H. Nakai, 
 T. Vreven, K. Throssell, J. A. Montgomery, Jr., J. E. Peralta, 
 F. Ogliaro, M. J. Bearpark, J. J. Heyd, E. N. Brothers, K. N. Kudin, 
 V. N. Staroverov, T. A. Keith, R. Kobayashi, J. Normand, 
 K. Raghavachari, A. P. Rendell, J. C. Burant, S. S. Iyengar, 
 J. Tomasi, M. Cossi, J. M. Millam, M. Klene, C. Adamo, R. Cammi, 
 J. W. Ochterski, R. L. Martin, K. Morokuma, O. Farkas, 
 J. B. Foresman, and D. J. Fox, Gaussian, Inc., Wallingford CT, 2016.
 
 ******************************************
 Gaussian 16:  ES64L-G16RevA.03 25-Dec-2016
                30-Jan-2025 
 ******************************************
 %chk=PFB-CAT.chk
 --------------------------------------------------------
 #p opt freq PBE1PBE/6-311++G(d,p) density=current nosymm
 --------------------------------------------------------
 1/18=20,19=15,26=3,38=1/1,3;
 2/9=110,12=2,15=1,17=6,18=5,40=1/2;
 3/5=4,6=6,7=1111,11=2,25=1,30=1,71=1,74=-13/1,2,3;
 4//1;
 5/5=2,38=5/2;
 6/7=2,8=2,9=2,10=2,22=-1,28=1/1;
 7/30=1/1,2,3,16;
 1/18=20,19=15,26=3/3(2);
 2/9=110,15=1/2;
 99//99;
 2/9=110,15=1/2;
 3/5=4,6=6,7=1111,11=2,25=1,30=1,71=1,74=-13/1,2,3;
 4/5=5,16=3,69=1/1;
 5/5=2,38=5/2;
 7/30=1/1,2,3,16;
 1/18=20,19=15,26=3/3(-5);
 2/9=110,15=1/2;
 6/7=2,8=2,9=2,10=2,19=2,22=-1,28=1/1;
 99/9=1/99;
 Leave Link    1 at Thu Jan 30 14:24:45 2025, MaxMem=           0 cpu:               0.0 elap:               0.0
 (Enter /sw/cluster/pub/apps//g16/l101.exe)
 ------
 PFB SP
 ------
 Symbolic Z-matrix:
 Charge =  1 Multiplicity = 2
 C                     1.19153   0.68536   0. 
 C                     1.20712  -0.69698   0. 
 C                     0.00229  -1.37476  0. 
 C                    -1.20604  -0.69433   0. 
 C                    -1.20157   0.69381   0. 
 C                    -0.00178   1.39191  0. 
 H                     2.1448   -1.23807   0. 
 F                    -0.01435  -2.70478   0. 
 F                    -2.35775  -1.35084   0. 
 F                    -2.34781   1.35502  0. 
 F                    -0.00872   2.7176    0. 
 F                     2.33522   1.36446   0. 
 
 ITRead=  0  0  0  0  0  0  0  0  0  0  0  0
 MicOpt= -1 -1 -1 -1 -1 -1 -1 -1 -1 -1 -1 -1
 NAtoms=     12 NQM=       12 NQMF=       0 NMMI=      0 NMMIF=      0
                NMic=       0 NMicF=      0.
                    Isotopes and Nuclear Properties:
 (Nuclear quadrupole moments (NQMom) in fm**2, nuclear magnetic moments (NMagM)
  in nuclear magnetons)

  Atom         1           2           3           4           5           6           7           8           9          10
 IAtWgt=          12          12          12          12          12          12           1          19          19          19
 AtmWgt=  12.0000000  12.0000000  12.0000000  12.0000000  12.0000000  12.0000000   1.0078250  18.9984032  18.9984032  18.9984032
 NucSpn=           0           0           0           0           0           0           1           1           1           1
 AtZEff=  -0.0000000  -0.0000000  -0.0000000  -0.0000000  -0.0000000  -0.0000000  -0.0000000  -0.0000000  -0.0000000  -0.0000000
 NQMom=    0.0000000   0.0000000   0.0000000   0.0000000   0.0000000   0.0000000   0.0000000   0.0000000   0.0000000   0.0000000
 NMagM=    0.0000000   0.0000000   0.0000000   0.0000000   0.0000000   0.0000000   2.7928460   2.6288670   2.6288670   2.6288670
 AtZNuc=   6.0000000   6.0000000   6.0000000   6.0000000   6.0000000   6.0000000   1.0000000   9.0000000   9.0000000   9.0000000

  Atom        11          12
 IAtWgt=          19          19
 AtmWgt=  18.9984032  18.9984032
 NucSpn=           1           1
 AtZEff=  -0.0000000  -0.0000000
 NQMom=    0.0000000   0.0000000
 NMagM=    2.6288670   2.6288670
 AtZNuc=   9.0000000   9.0000000
 Leave Link  101 at Thu Jan 30 14:24:45 2025, MaxMem=   104857600 cpu:               0.0 elap:               0.0
 (Enter /sw/cluster/pub/apps//g16/l103.exe)

 GradGradGradGradGradGradGradGradGradGradGradGradGradGradGradGradGradGrad
 Berny optimization.
 Initialization pass.
                           ----------------------------
                           !    Initial Parameters    !
                           ! (Angstroms and Degrees)  !
 --------------------------                            --------------------------
 ! Name  Definition              Value          Derivative Info.                !
 --------------------------------------------------------------------------------
 ! R1    R(1,2)                  1.3824         estimate D2E/DX2                !
 ! R2    R(1,6)                  1.3868         estimate D2E/DX2                !
 ! R3    R(1,12)                 1.3301         estimate D2E/DX2                !
 ! R4    R(2,3)                  1.3824         estimate D2E/DX2                !
 ! R5    R(2,7)                  1.0826         estimate D2E/DX2                !
 ! R6    R(3,4)                  1.3867         estimate D2E/DX2                !
 ! R7    R(3,8)                  1.3301         estimate D2E/DX2                !
 ! R8    R(4,5)                  1.3881         estimate D2E/DX2                !
 ! R9    R(4,9)                  1.3257         estimate D2E/DX2                !
 ! R10   R(5,6)                  1.3881         estimate D2E/DX2                !
 ! R11   R(5,10)                 1.3233         estimate D2E/DX2                !
 ! R12   R(6,11)                 1.3257         estimate D2E/DX2                !
 ! A1    A(2,1,6)              121.2751         estimate D2E/DX2                !
 ! A2    A(2,1,12)             120.0552         estimate D2E/DX2                !
 ! A3    A(6,1,12)             118.6696         estimate D2E/DX2                !
 ! A4    A(1,2,3)              118.7142         estimate D2E/DX2                !
 ! A5    A(1,2,7)              120.6335         estimate D2E/DX2                !
 ! A6    A(3,2,7)              120.6523         estimate D2E/DX2                !
 ! A7    A(2,3,4)              121.2555         estimate D2E/DX2                !
 ! A8    A(2,3,8)              120.0769         estimate D2E/DX2                !
 ! A9    A(4,3,8)              118.6676         estimate D2E/DX2                !
 ! A10   A(3,4,5)              119.1997         estimate D2E/DX2                !
 ! A11   A(3,4,9)              120.9311         estimate D2E/DX2                !
 ! A12   A(5,4,9)              119.8692         estimate D2E/DX2                !
 ! A13   A(4,5,6)              120.3776         estimate D2E/DX2                !
 ! A14   A(4,5,10)             119.7939         estimate D2E/DX2                !
 ! A15   A(6,5,10)             119.8285         estimate D2E/DX2                !
 ! A16   A(1,6,5)              119.1779         estimate D2E/DX2                !
 ! A17   A(1,6,11)             120.929          estimate D2E/DX2                !
 ! A18   A(5,6,11)             119.8931         estimate D2E/DX2                !
 ! D1    D(6,1,2,3)              0.0            estimate D2E/DX2                !
 ! D2    D(6,1,2,7)            180.0            estimate D2E/DX2                !
 ! D3    D(12,1,2,3)           180.0            estimate D2E/DX2                !
 ! D4    D(12,1,2,7)             0.0            estimate D2E/DX2                !
 ! D5    D(2,1,6,5)              0.0            estimate D2E/DX2                !
 ! D6    D(2,1,6,11)           180.0            estimate D2E/DX2                !
 ! D7    D(12,1,6,5)           180.0            estimate D2E/DX2                !
 ! D8    D(12,1,6,11)            0.0            estimate D2E/DX2                !
 ! D9    D(1,2,3,4)              0.0            estimate D2E/DX2                !
 ! D10   D(1,2,3,8)            180.0            estimate D2E/DX2                !
 ! D11   D(7,2,3,4)            180.0            estimate D2E/DX2                !
 ! D12   D(7,2,3,8)              0.0            estimate D2E/DX2                !
 ! D13   D(2,3,4,5)              0.0            estimate D2E/DX2                !
 ! D14   D(2,3,4,9)            180.0            estimate D2E/DX2                !
 ! D15   D(8,3,4,5)            180.0            estimate D2E/DX2                !
 ! D16   D(8,3,4,9)              0.0            estimate D2E/DX2                !
 ! D17   D(3,4,5,6)              0.0            estimate D2E/DX2                !
 ! D18   D(3,4,5,10)           180.0            estimate D2E/DX2                !
 ! D19   D(9,4,5,6)            180.0            estimate D2E/DX2                !
 ! D20   D(9,4,5,10)             0.0            estimate D2E/DX2                !
 ! D21   D(4,5,6,1)              0.0            estimate D2E/DX2                !
 ! D22   D(4,5,6,11)           180.0            estimate D2E/DX2                !
 ! D23   D(10,5,6,1)           180.0            estimate D2E/DX2                !
 ! D24   D(10,5,6,11)            0.0            estimate D2E/DX2                !
 --------------------------------------------------------------------------------
 Trust Radius=3.00D-01 FncErr=1.00D-07 GrdErr=1.00D-06 EigMax=2.50D+02 EigMin=1.00D-04
 Number of steps in this run=     64 maximum allowed number of steps=    100.
 GradGradGradGradGradGradGradGradGradGradGradGradGradGradGradGradGradGrad

 Leave Link  103 at Thu Jan 30 14:24:45 2025, MaxMem=   104857600 cpu:               0.0 elap:               0.0
 (Enter /sw/cluster/pub/apps//g16/l202.exe)
                          Input orientation:                          
 ---------------------------------------------------------------------
 Center     Atomic      Atomic             Coordinates (Angstroms)
 Number     Number       Type             X           Y           Z
 ---------------------------------------------------------------------
      1          6           0        1.191533    0.685362    0.000000
      2          6           0        1.207116   -0.696977    0.000000
      3          6           0        0.002291   -1.374757   -0.000000
      4          6           0       -1.206045   -0.694328    0.000000
      5          6           0       -1.201570    0.693813    0.000000
      6          6           0       -0.001780    1.391908   -0.000000
      7          1           0        2.144796   -1.238075    0.000000
      8          9           0       -0.014349   -2.704782    0.000000
      9          9           0       -2.357753   -1.350838    0.000000
     10          9           0       -2.347807    1.355023   -0.000000
     11          9           0       -0.008716    2.717605    0.000000
     12          9           0        2.335219    1.364462    0.000000
 ---------------------------------------------------------------------
                    Distance matrix (angstroms):
                    1          2          3          4          5
     1  C    0.000000
     2  C    1.382426   0.000000
     3  C    2.378736   1.382386   0.000000
     4  C    2.766211   2.413163   1.386743   0.000000
     5  C    2.393118   2.781379   2.393379   1.388149   0.000000
     6  C    1.386796   2.413476   2.766667   2.408866   1.388104
     7  H    2.146699   1.082603   2.146860   3.394671   3.863982
     8  F    3.598226   2.350162   1.330130   2.337106   3.599992
     9  F    4.091887   3.624338   2.360165   1.325683   2.348905
    10  F    3.602135   4.104654   3.602035   2.345946   1.323276
    11  F    2.360214   3.624585   4.092376   3.615921   2.349177
    12  F    1.330111   2.349925   3.598038   4.096238   3.599812
                    6          7          8          9         10
     6  C    0.000000
     7  H    3.394789   0.000000
     8  F    4.096709   2.610199   0.000000
     9  F    3.615696   4.503960   2.706420   0.000000
    10  F    2.346317   5.187257   4.682632   2.705879   0.000000
    11  F    1.325715   4.503889   5.422390   4.697893   2.707023
    12  F    2.337160   2.609495   4.698853   5.421885   4.683036
                   11         12
    11  F    0.000000
    12  F    2.706479   0.000000
 Symmetry turned off by external request.
 Stoichiometry    C6HF5(1+,2)
 Framework group  CS[SG(C6HF5)]
 Deg. of freedom    21
 Full point group                 CS      NOp   2
 Rotational constants (GHZ):           1.4886064           1.0352938           0.6106204
 Leave Link  202 at Thu Jan 30 14:24:45 2025, MaxMem=   104857600 cpu:               0.0 elap:               0.0
 (Enter /sw/cluster/pub/apps//g16/l301.exe)
 Standard basis: 6-311++G(d,p) (5D, 7F)
 Ernie: Thresh=  0.10000D-02 Tol=  0.10000D-05 Strict=F.
   249 basis functions,   405 primitive gaussians,   260 cartesian basis functions
    41 alpha electrons       40 beta electrons
       nuclear repulsion energy       625.1356942200 Hartrees.
 IExCor= 1009 DFT=T Ex+Corr=PBE1PBE ExCW=0 ScaHFX=  0.250000
 ScaDFX=  0.750000  0.750000  1.000000  1.000000 ScalE2=  1.000000  1.000000
 IRadAn=      5 IRanWt=     -1 IRanGd=            0 ICorTp=0 IEmpDi=  4
 NAtoms=   12 NActive=   12 NUniq=   12 SFac= 1.00D+00 NAtFMM=   60 NAOKFM=F Big=F
 Integral buffers will be    131072 words long.
 Raffenetti 2 integral format.
 Two-electron integral symmetry is turned off.
 Leave Link  301 at Thu Jan 30 14:24:45 2025, MaxMem=   104857600 cpu:               0.0 elap:               0.0
 (Enter /sw/cluster/pub/apps//g16/l302.exe)
 NPDir=0 NMtPBC=     1 NCelOv=     1 NCel=       1 NClECP=     1 NCelD=      1
         NCelK=      1 NCelE2=     1 NClLst=     1 CellRange=     0.0.
 One-electron integrals computed using PRISM.
 NBasis=   249 RedAO= T EigKep=  1.81D-06  NBF=   249
 NBsUse=   249 1.00D-06 EigRej= -1.00D+00 NBFU=   249
 Precomputing XC quadrature grid using
 IXCGrd= 4 IRadAn=           5 IRanWt=          -1 IRanGd=           0 AccXCQ= 0.00D+00.
 Generated NRdTot=       0 NPtTot=           0 NUsed=           0 NTot=          32
 NSgBfM=   260   260   260   260   260 MxSgAt=    12 MxSgA2=    12.
 Leave Link  302 at Thu Jan 30 14:24:45 2025, MaxMem=   104857600 cpu:               0.1 elap:               0.1
 (Enter /sw/cluster/pub/apps//g16/l303.exe)
 DipDrv:  MaxL=1.
 Leave Link  303 at Thu Jan 30 14:24:45 2025, MaxMem=   104857600 cpu:               0.0 elap:               0.0
 (Enter /sw/cluster/pub/apps//g16/l401.exe)
 ExpMin= 3.60D-02 ExpMax= 1.14D+04 ExpMxC= 1.72D+03 IAcc=3 IRadAn=         5 AccDes= 0.00D+00
 Harris functional with IExCor= 1009 and IRadAn=       5 diagonalized for initial guess.
 HarFok:  IExCor= 1009 AccDes= 0.00D+00 IRadAn=         5 IDoV= 1 UseB2=F ITyADJ=14
 ICtDFT=  3500011 ScaDFX=  1.000000  1.000000  1.000000  1.000000
 FoFCou: FMM=F IPFlag=           0 FMFlag=      100000 FMFlg1=           0
         NFxFlg=           0 DoJE=T BraDBF=F KetDBF=T FulRan=T
         wScrn=  0.000000 ICntrl=       500 IOpCl=  0 I1Cent=   200000004 NGrid=           0
         NMat0=    1 NMatS0=      1 NMatT0=    0 NMatD0=    1 NMtDS0=    0 NMtDT0=    0
 Symmetry not used in FoFCou.
 Harris En= -727.615628606503    
 JPrj=0 DoOrth=F DoCkMO=F.
 Initial guess <Sx>= 0.0000 <Sy>= 0.0000 <Sz>= 0.5000 <S**2>= 0.7500 S= 0.5000
 Leave Link  401 at Thu Jan 30 14:24:46 2025, MaxMem=   104857600 cpu:               1.4 elap:               1.4
 (Enter /sw/cluster/pub/apps//g16/l502.exe)
 Two-electron integral symmetry not used.
 UHF open shell SCF:
 Using DIIS extrapolation, IDIIS=  1040.
 NGot=   104857600 LenX=   104719020 LenY=   104650979
 Requested convergence on RMS density matrix=1.00D-08 within 128 cycles.
 Requested convergence on MAX density matrix=1.00D-06.
 Requested convergence on             energy=1.00D-06.
 No special actions if energy rises.
 Fock matrices will be formed incrementally for  20 cycles.

 Cycle   1  Pass 1  IDiag  1:
 FoFJK:  IHMeth= 1 ICntrl=       0 DoSepK=F KAlg= 0 I1Cent=           0 FoldK=F
 IRaf= 920000000 NMat=       1 IRICut=       1 DoRegI=T DoRafI=F ISym2E= 0 IDoP0=0 IntGTp=1.
 FoFCou: FMM=F IPFlag=           0 FMFlag=      100000 FMFlg1=           0
         NFxFlg=           0 DoJE=F BraDBF=F KetDBF=F FulRan=T
         wScrn=  0.000000 ICntrl=         0 IOpCl=  1 I1Cent=           0 NGrid=           0
         NMat0=    1 NMatS0=      1 NMatT0=    0 NMatD0=    1 NMtDS0=    0 NMtDT0=    0
 Symmetry not used in FoFCou.
 E= -727.438740433868    
 DIIS: error= 2.07D-02 at cycle   1 NSaved=   1.
 NSaved= 1 IEnMin= 1 EnMin= -727.438740433868     IErMin= 1 ErrMin= 2.07D-02
 ErrMax= 2.07D-02  0.00D+00 EMaxC= 1.00D-01 BMatC= 4.97D-01 BMatP= 4.97D-01
 IDIUse=3 WtCom= 7.93D-01 WtEn= 2.07D-01
 Coeff-Com:  0.100D+01
 Coeff-En:   0.100D+01
 Coeff:      0.100D+01
 Gap=     0.294 Goal=   None    Shift=    0.000
 Gap=     0.035 Goal=   None    Shift=    0.000
 GapD=    0.035 DampG=0.250 DampE=0.500 DampFc=0.2500 IDamp=-1.
 Damping current iteration by 2.50D-01
 RMSDP=2.25D-02 MaxDP=9.51D-01              OVMax= 2.41D-01

 Cycle   2  Pass 1  IDiag  1:
 RMSU=  4.69D-03    CP:  1.06D+00
 E= -727.466747846804     Delta-E=       -0.028007412935 Rises=F Damp=T
 DIIS: error= 9.43D-03 at cycle   2 NSaved=   2.
 NSaved= 2 IEnMin= 2 EnMin= -727.466747846804     IErMin= 2 ErrMin= 9.43D-03
 ErrMax= 9.43D-03  0.00D+00 EMaxC= 1.00D-01 BMatC= 1.70D-01 BMatP= 4.97D-01
 IDIUse=3 WtCom= 9.06D-01 WtEn= 9.43D-02
 Coeff-Com: -0.101D+01 0.201D+01
 Coeff-En:   0.000D+00 0.100D+01
 Coeff:     -0.919D+00 0.192D+01
 Gap=     0.251 Goal=   None    Shift=    0.000
 Gap=     0.078 Goal=   None    Shift=    0.000
 RMSDP=9.90D-03 MaxDP=3.94D-01 DE=-2.80D-02 OVMax= 1.46D-01

 Cycle   3  Pass 1  IDiag  1:
 RMSU=  3.15D-03    CP:  1.11D+00  2.90D+00
 E= -727.515243388825     Delta-E=       -0.048495542022 Rises=F Damp=F
 DIIS: error= 8.29D-03 at cycle   3 NSaved=   3.
 NSaved= 3 IEnMin= 3 EnMin= -727.515243388825     IErMin= 3 ErrMin= 8.29D-03
 ErrMax= 8.29D-03  0.00D+00 EMaxC= 1.00D-01 BMatC= 2.51D-02 BMatP= 1.70D-01
 IDIUse=3 WtCom= 9.17D-01 WtEn= 8.29D-02
 Coeff-Com: -0.526D+00 0.827D+00 0.699D+00
 Coeff-En:   0.000D+00 0.000D+00 0.100D+01
 Coeff:     -0.482D+00 0.759D+00 0.724D+00
 Gap=     0.247 Goal=   None    Shift=    0.000
 Gap=     0.076 Goal=   None    Shift=    0.000
 RMSDP=8.69D-04 MaxDP=3.93D-02 DE=-4.85D-02 OVMax= 3.47D-02

 Cycle   4  Pass 1  IDiag  1:
 RMSU=  7.34D-04    CP:  1.11D+00  2.89D+00  8.54D-01
 E= -727.519443476653     Delta-E=       -0.004200087827 Rises=F Damp=F
 DIIS: error= 3.52D-03 at cycle   4 NSaved=   4.
 NSaved= 4 IEnMin= 4 EnMin= -727.519443476653     IErMin= 4 ErrMin= 3.52D-03
 ErrMax= 3.52D-03  0.00D+00 EMaxC= 1.00D-01 BMatC= 6.96D-03 BMatP= 2.51D-02
 IDIUse=3 WtCom= 9.65D-01 WtEn= 3.52D-02
 Coeff-Com: -0.213D+00 0.317D+00 0.423D+00 0.473D+00
 Coeff-En:   0.000D+00 0.000D+00 0.160D+00 0.840D+00
 Coeff:     -0.206D+00 0.306D+00 0.413D+00 0.486D+00
 Gap=     0.244 Goal=   None    Shift=    0.000
 Gap=     0.073 Goal=   None    Shift=    0.000
 RMSDP=8.07D-04 MaxDP=3.21D-02 DE=-4.20D-03 OVMax= 1.25D-02

 Cycle   5  Pass 1  IDiag  1:
 RMSU=  2.97D-04    CP:  1.10D+00  2.81D+00  8.95D-01  8.09D-01
 E= -727.520671133871     Delta-E=       -0.001227657219 Rises=F Damp=F
 DIIS: error= 8.75D-04 at cycle   5 NSaved=   5.
 NSaved= 5 IEnMin= 5 EnMin= -727.520671133871     IErMin= 5 ErrMin= 8.75D-04
 ErrMax= 8.75D-04  0.00D+00 EMaxC= 1.00D-01 BMatC= 4.58D-04 BMatP= 6.96D-03
 IDIUse=3 WtCom= 9.91D-01 WtEn= 8.75D-03
 Coeff-Com: -0.253D-01 0.305D-01 0.106D+00 0.247D+00 0.642D+00
 Coeff-En:   0.000D+00 0.000D+00 0.000D+00 0.000D+00 0.100D+01
 Coeff:     -0.251D-01 0.303D-01 0.105D+00 0.244D+00 0.645D+00
 Gap=     0.243 Goal=   None    Shift=    0.000
 Gap=     0.075 Goal=   None    Shift=    0.000
 RMSDP=2.48D-04 MaxDP=9.55D-03 DE=-1.23D-03 OVMax= 4.37D-03

 Cycle   6  Pass 1  IDiag  1:
 RMSU=  9.14D-05    CP:  1.10D+00  2.85D+00  9.23D-01  8.04D-01  9.23D-01
 E= -727.520763115699     Delta-E=       -0.000091981828 Rises=F Damp=F
 DIIS: error= 3.55D-04 at cycle   6 NSaved=   6.
 NSaved= 6 IEnMin= 6 EnMin= -727.520763115699     IErMin= 6 ErrMin= 3.55D-04
 ErrMax= 3.55D-04  0.00D+00 EMaxC= 1.00D-01 BMatC= 3.98D-05 BMatP= 4.58D-04
 IDIUse=3 WtCom= 9.96D-01 WtEn= 3.55D-03
 Coeff-Com:  0.708D-02-0.131D-01 0.586D-02 0.646D-01 0.257D+00 0.679D+00
 Coeff-En:   0.000D+00 0.000D+00 0.000D+00 0.000D+00 0.000D+00 0.100D+01
 Coeff:      0.706D-02-0.130D-01 0.584D-02 0.644D-01 0.256D+00 0.680D+00
 Gap=     0.243 Goal=   None    Shift=    0.000
 Gap=     0.076 Goal=   None    Shift=    0.000
 RMSDP=5.81D-05 MaxDP=4.77D-03 DE=-9.20D-05 OVMax= 2.32D-03

 Cycle   7  Pass 1  IDiag  1:
 RMSU=  3.51D-05    CP:  1.10D+00  2.85D+00  9.25D-01  8.54D-01  9.75D-01
                    CP:  1.14D+00
 E= -727.520777772544     Delta-E=       -0.000014656845 Rises=F Damp=F
 DIIS: error= 2.06D-04 at cycle   7 NSaved=   7.
 NSaved= 7 IEnMin= 7 EnMin= -727.520777772544     IErMin= 7 ErrMin= 2.06D-04
 ErrMax= 2.06D-04  0.00D+00 EMaxC= 1.00D-01 BMatC= 1.51D-05 BMatP= 3.98D-05
 IDIUse=3 WtCom= 9.98D-01 WtEn= 2.06D-03
 Coeff-Com:  0.130D-01-0.183D-01-0.390D-01-0.627D-01-0.126D+00 0.359D+00
 Coeff-Com:  0.874D+00
 Coeff-En:   0.000D+00 0.000D+00 0.000D+00 0.000D+00 0.000D+00 0.000D+00
 Coeff-En:   0.100D+01
 Coeff:      0.130D-01-0.182D-01-0.389D-01-0.626D-01-0.126D+00 0.358D+00
 Coeff:      0.875D+00
 Gap=     0.242 Goal=   None    Shift=    0.000
 Gap=     0.077 Goal=   None    Shift=    0.000
 RMSDP=6.25D-05 MaxDP=5.05D-03 DE=-1.47D-05 OVMax= 1.84D-03

 Cycle   8  Pass 1  IDiag  1:
 RMSU=  3.89D-05    CP:  1.10D+00  2.85D+00  9.26D-01  8.86D-01  1.02D+00
                    CP:  1.48D+00  1.09D+00
 E= -727.520784661608     Delta-E=       -0.000006889064 Rises=F Damp=F
 DIIS: error= 7.35D-05 at cycle   8 NSaved=   8.
 NSaved= 8 IEnMin= 8 EnMin= -727.520784661608     IErMin= 8 ErrMin= 7.35D-05
 ErrMax= 7.35D-05  0.00D+00 EMaxC= 1.00D-01 BMatC= 2.64D-06 BMatP= 1.51D-05
 IDIUse=1 WtCom= 1.00D+00 WtEn= 0.00D+00
 Coeff-Com:  0.465D-02-0.597D-02-0.186D-01-0.405D-01-0.954D-01 0.439D-01
 Coeff-Com:  0.434D+00 0.678D+00
 Coeff:      0.465D-02-0.597D-02-0.186D-01-0.405D-01-0.954D-01 0.439D-01
 Coeff:      0.434D+00 0.678D+00
 Gap=     0.242 Goal=   None    Shift=    0.000
 Gap=     0.077 Goal=   None    Shift=    0.000
 RMSDP=1.65D-05 MaxDP=1.60D-03 DE=-6.89D-06 OVMax= 4.38D-04

 Cycle   9  Pass 1  IDiag  1:
 RMSU=  6.51D-06    CP:  1.10D+00  2.85D+00  9.28D-01  8.91D-01  1.04D+00
                    CP:  1.56D+00  1.21D+00  9.46D-01
 E= -727.520785439152     Delta-E=       -0.000000777544 Rises=F Damp=F
 DIIS: error= 2.93D-05 at cycle   9 NSaved=   9.
 NSaved= 9 IEnMin= 9 EnMin= -727.520785439152     IErMin= 9 ErrMin= 2.93D-05
 ErrMax= 2.93D-05  0.00D+00 EMaxC= 1.00D-01 BMatC= 4.02D-07 BMatP= 2.64D-06
 IDIUse=1 WtCom= 1.00D+00 WtEn= 0.00D+00
 Coeff-Com:  0.608D-03-0.635D-03-0.417D-02-0.122D-01-0.289D-01-0.312D-01
 Coeff-Com:  0.103D+00 0.327D+00 0.646D+00
 Coeff:      0.608D-03-0.635D-03-0.417D-02-0.122D-01-0.289D-01-0.312D-01
 Coeff:      0.103D+00 0.327D+00 0.646D+00
 Gap=     0.242 Goal=   None    Shift=    0.000
 Gap=     0.077 Goal=   None    Shift=    0.000
 RMSDP=4.97D-06 MaxDP=3.08D-04 DE=-7.78D-07 OVMax= 1.65D-04

 Cycle  10  Pass 1  IDiag  1:
 RMSU=  2.62D-06    CP:  1.10D+00  2.85D+00  9.28D-01  8.90D-01  1.05D+00
                    CP:  1.58D+00  1.26D+00  9.43D-01  7.18D-01
 E= -727.520785530801     Delta-E=       -0.000000091649 Rises=F Damp=F
 DIIS: error= 7.25D-06 at cycle  10 NSaved=  10.
 NSaved=10 IEnMin=10 EnMin= -727.520785530801     IErMin=10 ErrMin= 7.25D-06
 ErrMax= 7.25D-06  0.00D+00 EMaxC= 1.00D-01 BMatC= 4.94D-08 BMatP= 4.02D-07
 IDIUse=1 WtCom= 1.00D+00 WtEn= 0.00D+00
 Coeff-Com: -0.464D-03 0.668D-03 0.115D-02 0.158D-02 0.406D-02-0.186D-01
 Coeff-Com: -0.284D-01 0.725D-02 0.267D+00 0.765D+00
 Coeff:     -0.464D-03 0.668D-03 0.115D-02 0.158D-02 0.406D-02-0.186D-01
 Coeff:     -0.284D-01 0.725D-02 0.267D+00 0.765D+00
 Gap=     0.242 Goal=   None    Shift=    0.000
 Gap=     0.077 Goal=   None    Shift=    0.000
 RMSDP=2.59D-06 MaxDP=1.16D-04 DE=-9.16D-08 OVMax= 7.29D-05

 Cycle  11  Pass 1  IDiag  1:
 RMSU=  8.12D-07    CP:  1.10D+00  2.85D+00  9.28D-01  8.90D-01  1.05D+00
                    CP:  1.58D+00  1.26D+00  9.54D-01  8.57D-01  9.96D-01
 E= -727.520785543308     Delta-E=       -0.000000012507 Rises=F Damp=F
 DIIS: error= 2.59D-06 at cycle  11 NSaved=  11.
 NSaved=11 IEnMin=11 EnMin= -727.520785543308     IErMin=11 ErrMin= 2.59D-06
 ErrMax= 2.59D-06  0.00D+00 EMaxC= 1.00D-01 BMatC= 5.21D-09 BMatP= 4.94D-08
 IDIUse=1 WtCom= 1.00D+00 WtEn= 0.00D+00
 Coeff-Com: -0.232D-03 0.311D-03 0.853D-03 0.183D-02 0.440D-02-0.297D-02
 Coeff-Com: -0.199D-01-0.335D-01 0.342D-01 0.266D+00 0.749D+00
 Coeff:     -0.232D-03 0.311D-03 0.853D-03 0.183D-02 0.440D-02-0.297D-02
 Coeff:     -0.199D-01-0.335D-01 0.342D-01 0.266D+00 0.749D+00
 Gap=     0.242 Goal=   None    Shift=    0.000
 Gap=     0.077 Goal=   None    Shift=    0.000
 RMSDP=7.86D-07 MaxDP=3.33D-05 DE=-1.25D-08 OVMax= 2.72D-05

 Cycle  12  Pass 1  IDiag  1:
 RMSU=  3.81D-07    CP:  1.10D+00  2.85D+00  9.28D-01  8.90D-01  1.04D+00
                    CP:  1.58D+00  1.26D+00  9.57D-01  8.73D-01  1.05D+00
                    CP:  8.77D-01
 E= -727.520785545209     Delta-E=       -0.000000001901 Rises=F Damp=F
 DIIS: error= 1.84D-06 at cycle  12 NSaved=  12.
 NSaved=12 IEnMin=12 EnMin= -727.520785545209     IErMin=12 ErrMin= 1.84D-06
 ErrMax= 1.84D-06  0.00D+00 EMaxC= 1.00D-01 BMatC= 1.43D-09 BMatP= 5.21D-09
 IDIUse=1 WtCom= 1.00D+00 WtEn= 0.00D+00
 Coeff-Com: -0.385D-04 0.431D-04 0.228D-03 0.625D-03 0.132D-02 0.208D-02
 Coeff-Com: -0.451D-02-0.168D-01-0.303D-01-0.208D-01 0.328D+00 0.740D+00
 Coeff:     -0.385D-04 0.431D-04 0.228D-03 0.625D-03 0.132D-02 0.208D-02
 Coeff:     -0.451D-02-0.168D-01-0.303D-01-0.208D-01 0.328D+00 0.740D+00
 Gap=     0.242 Goal=   None    Shift=    0.000
 Gap=     0.077 Goal=   None    Shift=    0.000
 RMSDP=3.84D-07 MaxDP=3.05D-05 DE=-1.90D-09 OVMax= 2.45D-05

 Cycle  13  Pass 1  IDiag  1:
 RMSU=  2.49D-07    CP:  1.10D+00  2.85D+00  9.28D-01  8.90D-01  1.04D+00
                    CP:  1.58D+00  1.26D+00  9.55D-01  8.84D-01  1.06D+00
                    CP:  1.06D+00  8.41D-01
 E= -727.520785545874     Delta-E=       -0.000000000664 Rises=F Damp=F
 DIIS: error= 1.51D-06 at cycle  13 NSaved=  13.
 NSaved=13 IEnMin=13 EnMin= -727.520785545874     IErMin=13 ErrMin= 1.51D-06
 ErrMax= 1.51D-06  0.00D+00 EMaxC= 1.00D-01 BMatC= 8.41D-10 BMatP= 1.43D-09
 IDIUse=1 WtCom= 1.00D+00 WtEn= 0.00D+00
 Coeff-Com:  0.317D-04-0.474D-04-0.753D-04-0.853D-04-0.397D-03 0.219D-02
 Coeff-Com:  0.215D-02-0.133D-02-0.268D-01-0.841D-01 0.495D-02 0.507D+00
 Coeff-Com:  0.597D+00
 Coeff:      0.317D-04-0.474D-04-0.753D-04-0.853D-04-0.397D-03 0.219D-02
 Coeff:      0.215D-02-0.133D-02-0.268D-01-0.841D-01 0.495D-02 0.507D+00
 Coeff:      0.597D+00
 Gap=     0.242 Goal=   None    Shift=    0.000
 Gap=     0.077 Goal=   None    Shift=    0.000
 RMSDP=2.18D-07 MaxDP=1.05D-05 DE=-6.64D-10 OVMax= 1.54D-05

 Cycle  14  Pass 1  IDiag  1:
 RMSU=  1.02D-07    CP:  1.10D+00  2.85D+00  9.28D-01  8.90D-01  1.04D+00
                    CP:  1.58D+00  1.26D+00  9.54D-01  8.87D-01  1.07D+00
                    CP:  1.07D+00  1.16D+00  6.71D-01
 E= -727.520785546276     Delta-E=       -0.000000000402 Rises=F Damp=F
 DIIS: error= 5.67D-07 at cycle  14 NSaved=  14.
 NSaved=14 IEnMin=14 EnMin= -727.520785546276     IErMin=14 ErrMin= 5.67D-07
 ErrMax= 5.67D-07  0.00D+00 EMaxC= 1.00D-01 BMatC= 1.48D-10 BMatP= 8.41D-10
 IDIUse=1 WtCom= 1.00D+00 WtEn= 0.00D+00
 Coeff-Com:  0.317D-04-0.419D-04-0.131D-03-0.290D-03-0.744D-03 0.561D-03
 Coeff-Com:  0.274D-02 0.537D-02-0.273D-02-0.394D-01-0.123D+00 0.348D-01
 Coeff-Com:  0.303D+00 0.820D+00
 Coeff:      0.317D-04-0.419D-04-0.131D-03-0.290D-03-0.744D-03 0.561D-03
 Coeff:      0.274D-02 0.537D-02-0.273D-02-0.394D-01-0.123D+00 0.348D-01
 Coeff:      0.303D+00 0.820D+00
 Gap=     0.242 Goal=   None    Shift=    0.000
 Gap=     0.077 Goal=   None    Shift=    0.000
 RMSDP=1.31D-07 MaxDP=6.40D-06 DE=-4.02D-10 OVMax= 1.53D-05

 Cycle  15  Pass 1  IDiag  1:
 RMSU=  5.31D-08    CP:  1.10D+00  2.85D+00  9.28D-01  8.90D-01  1.04D+00
                    CP:  1.58D+00  1.26D+00  9.54D-01  8.88D-01  1.07D+00
                    CP:  1.10D+00  1.20D+00  9.31D-01  1.30D+00
 E= -727.520785546416     Delta-E=       -0.000000000140 Rises=F Damp=F
 DIIS: error= 3.17D-07 at cycle  15 NSaved=  15.
 NSaved=15 IEnMin=15 EnMin= -727.520785546416     IErMin=15 ErrMin= 3.17D-07
 ErrMax= 3.17D-07  0.00D+00 EMaxC= 1.00D-01 BMatC= 2.74D-11 BMatP= 1.48D-10
 IDIUse=1 WtCom= 1.00D+00 WtEn= 0.00D+00
 Coeff-Com: -0.912D-05 0.133D-04 0.264D-04 0.301D-04 0.194D-03-0.715D-03
 Coeff-Com: -0.832D-03-0.344D-03 0.104D-01 0.280D-01-0.147D-01-0.154D+00
 Coeff-Com: -0.195D+00 0.672D-01 0.126D+01
 Coeff:     -0.912D-05 0.133D-04 0.264D-04 0.301D-04 0.194D-03-0.715D-03
 Coeff:     -0.832D-03-0.344D-03 0.104D-01 0.280D-01-0.147D-01-0.154D+00
 Coeff:     -0.195D+00 0.672D-01 0.126D+01
 Gap=     0.242 Goal=   None    Shift=    0.000
 Gap=     0.077 Goal=   None    Shift=    0.000
 RMSDP=9.32D-08 MaxDP=5.41D-06 DE=-1.40D-10 OVMax= 1.58D-05

 Cycle  16  Pass 1  IDiag  1:
 RMSU=  2.83D-08    CP:  1.10D+00  2.85D+00  9.28D-01  8.90D-01  1.04D+00
                    CP:  1.58D+00  1.26D+00  9.54D-01  8.90D-01  1.06D+00
                    CP:  1.10D+00  1.27D+00  1.04D+00  1.83D+00  1.50D+00
 E= -727.520785546477     Delta-E=       -0.000000000061 Rises=F Damp=F
 DIIS: error= 1.40D-07 at cycle  16 NSaved=  16.
 NSaved=16 IEnMin=16 EnMin= -727.520785546477     IErMin=16 ErrMin= 1.40D-07
 ErrMax= 1.40D-07  0.00D+00 EMaxC= 1.00D-01 BMatC= 7.46D-12 BMatP= 2.74D-11
 IDIUse=1 WtCom= 1.00D+00 WtEn= 0.00D+00
 Coeff-Com: -0.644D-05 0.906D-05 0.223D-04 0.394D-04 0.141D-03-0.330D-03
 Coeff-Com: -0.589D-03-0.768D-03 0.459D-02 0.158D-01 0.731D-02-0.601D-01
 Coeff-Com: -0.122D+00-0.709D-01 0.511D+00 0.716D+00
 Coeff:     -0.644D-05 0.906D-05 0.223D-04 0.394D-04 0.141D-03-0.330D-03
 Coeff:     -0.589D-03-0.768D-03 0.459D-02 0.158D-01 0.731D-02-0.601D-01
 Coeff:     -0.122D+00-0.709D-01 0.511D+00 0.716D+00
 Gap=     0.242 Goal=   None    Shift=    0.000
 Gap=     0.077 Goal=   None    Shift=    0.000
 RMSDP=3.02D-08 MaxDP=1.45D-06 DE=-6.14D-11 OVMax= 6.19D-06

 Cycle  17  Pass 1  IDiag  1:
 RMSU=  1.49D-08    CP:  1.10D+00  2.85D+00  9.28D-01  8.90D-01  1.04D+00
                    CP:  1.58D+00  1.26D+00  9.54D-01  8.90D-01  1.06D+00
                    CP:  1.10D+00  1.28D+00  1.08D+00  1.94D+00  1.76D+00
                    CP:  1.26D+00
 E= -727.520785546484     Delta-E=       -0.000000000007 Rises=F Damp=F
 DIIS: error= 1.24D-07 at cycle  17 NSaved=  17.
 NSaved=17 IEnMin=17 EnMin= -727.520785546484     IErMin=17 ErrMin= 1.24D-07
 ErrMax= 1.24D-07  0.00D+00 EMaxC= 1.00D-01 BMatC= 3.66D-12 BMatP= 7.46D-12
 IDIUse=1 WtCom= 1.00D+00 WtEn= 0.00D+00
 Coeff-Com: -0.102D-05 0.127D-05 0.442D-05 0.147D-04 0.407D-05 0.100D-03
 Coeff-Com: -0.231D-04-0.337D-03-0.165D-02-0.234D-02 0.101D-01 0.337D-01
 Coeff-Com:  0.180D-02-0.671D-01-0.245D+00 0.423D+00 0.848D+00
 Coeff:     -0.102D-05 0.127D-05 0.442D-05 0.147D-04 0.407D-05 0.100D-03
 Coeff:     -0.231D-04-0.337D-03-0.165D-02-0.234D-02 0.101D-01 0.337D-01
 Coeff:      0.180D-02-0.671D-01-0.245D+00 0.423D+00 0.848D+00
 Gap=     0.242 Goal=   None    Shift=    0.000
 Gap=     0.077 Goal=   None    Shift=    0.000
 RMSDP=2.95D-08 MaxDP=1.35D-06 DE=-6.82D-12 OVMax= 7.53D-06

 Cycle  18  Pass 1  IDiag  1:
 RMSU=  8.72D-09    CP:  1.10D+00  2.85D+00  9.28D-01  8.90D-01  1.04D+00
                    CP:  1.58D+00  1.26D+00  9.54D-01  8.91D-01  1.06D+00
                    CP:  1.10D+00  1.29D+00  1.10D+00  2.05D+00  1.95D+00
                    CP:  1.83D+00  1.51D+00
 E= -727.520785546493     Delta-E=       -0.000000000009 Rises=F Damp=F
 DIIS: error= 1.02D-07 at cycle  18 NSaved=  18.
 NSaved=18 IEnMin=18 EnMin= -727.520785546493     IErMin=18 ErrMin= 1.02D-07
 ErrMax= 1.02D-07  0.00D+00 EMaxC= 1.00D-01 BMatC= 1.31D-12 BMatP= 3.66D-12
 IDIUse=1 WtCom= 1.00D+00 WtEn= 0.00D+00
 Coeff-Com:  0.248D-05-0.340D-05-0.877D-05-0.216D-04-0.335D-04 0.313D-05
 Coeff-Com:  0.185D-03 0.472D-03-0.152D-03-0.234D-02-0.976D-02-0.266D-02
 Coeff-Com:  0.151D-01 0.880D-01 0.267D-01-0.482D+00-0.618D+00 0.198D+01
 Coeff:      0.248D-05-0.340D-05-0.877D-05-0.216D-04-0.335D-04 0.313D-05
 Coeff:      0.185D-03 0.472D-03-0.152D-03-0.234D-02-0.976D-02-0.266D-02
 Coeff:      0.151D-01 0.880D-01 0.267D-01-0.482D+00-0.618D+00 0.198D+01
 Gap=     0.242 Goal=   None    Shift=    0.000
 Gap=     0.077 Goal=   None    Shift=    0.000
 RMSDP=3.66D-08 MaxDP=1.12D-06 DE=-8.64D-12 OVMax= 1.09D-05

 Cycle  19  Pass 1  IDiag  1:
 RMSU=  5.67D-09    CP:  1.10D+00  2.85D+00  9.28D-01  8.90D-01  1.04D+00
                    CP:  1.58D+00  1.26D+00  9.54D-01  8.91D-01  1.06D+00
                    CP:  1.11D+00  1.29D+00  1.12D+00  2.14D+00  2.16D+00
                    CP:  2.56D+00  2.72D+00  2.78D+00
 E= -727.520785546503     Delta-E=       -0.000000000011 Rises=F Damp=F
 DIIS: error= 6.88D-08 at cycle  19 NSaved=  19.
 NSaved=19 IEnMin=19 EnMin= -727.520785546503     IErMin=19 ErrMin= 6.88D-08
 ErrMax= 6.88D-08  0.00D+00 EMaxC= 1.00D-01 BMatC= 6.35D-13 BMatP= 1.31D-12
 IDIUse=1 WtCom= 1.00D+00 WtEn= 0.00D+00
 Coeff-Com:  0.146D-06-0.608D-07-0.105D-05-0.423D-05 0.221D-05-0.743D-04
 Coeff-Com: -0.591D-04 0.133D-03 0.149D-02 0.282D-02-0.608D-02-0.245D-01
 Coeff-Com: -0.198D-01 0.464D-01 0.192D+00-0.243D+00-0.413D+00-0.745D+00
 Coeff-Com:  0.221D+01
 Coeff:      0.146D-06-0.608D-07-0.105D-05-0.423D-05 0.221D-05-0.743D-04
 Coeff:     -0.591D-04 0.133D-03 0.149D-02 0.282D-02-0.608D-02-0.245D-01
 Coeff:     -0.198D-01 0.464D-01 0.192D+00-0.243D+00-0.413D+00-0.745D+00
 Coeff:      0.221D+01
 Gap=     0.242 Goal=   None    Shift=    0.000
 Gap=     0.077 Goal=   None    Shift=    0.000
 RMSDP=5.20D-08 MaxDP=1.71D-06 DE=-1.07D-11 OVMax= 1.62D-05

 Cycle  20  Pass 1  IDiag  1:
 RMSU=  3.58D-08    CP:  1.10D+00  2.85D+00  9.28D-01  8.90D-01  1.04D+00
                    CP:  1.58D+00  1.26D+00  9.54D-01  8.91D-01  1.06D+00
                    CP:  1.11D+00  1.31D+00  1.16D+00  2.27D+00  2.45D+00
                    CP:  3.00D+00  3.00D+00  3.00D+00  2.59D+00
 E= -727.520785546508     Delta-E=       -0.000000000005 Rises=F Damp=F
 DIIS: error= 2.88D-08 at cycle  20 NSaved=  20.
 NSaved=20 IEnMin=20 EnMin= -727.520785546508     IErMin=20 ErrMin= 2.88D-08
 ErrMax= 2.88D-08  0.00D+00 EMaxC= 1.00D-01 BMatC= 2.28D-13 BMatP= 6.35D-13
 IDIUse=1 WtCom= 1.00D+00 WtEn= 0.00D+00
 Coeff-Com: -0.562D-06 0.852D-06 0.169D-05 0.335D-05 0.105D-04-0.424D-04
 Coeff-Com: -0.894D-04-0.461D-04 0.892D-03 0.226D-02-0.888D-03-0.135D-01
 Coeff-Com: -0.167D-01 0.519D-02 0.105D+00-0.178D-01-0.824D-01-0.981D+00
 Coeff-Com:  0.125D+01 0.753D+00
 Coeff:     -0.562D-06 0.852D-06 0.169D-05 0.335D-05 0.105D-04-0.424D-04
 Coeff:     -0.894D-04-0.461D-04 0.892D-03 0.226D-02-0.888D-03-0.135D-01
 Coeff:     -0.167D-01 0.519D-02 0.105D+00-0.178D-01-0.824D-01-0.981D+00
 Coeff:      0.125D+01 0.753D+00
 Gap=     0.242 Goal=   None    Shift=    0.000
 Gap=     0.077 Goal=   None    Shift=    0.000
 RMSDP=2.24D-08 MaxDP=6.52D-07 DE=-5.23D-12 OVMax= 6.26D-06

 Cycle  21  Pass 1  IDiag  1:
 Restarting incremental Fock formation.
 E= -727.520785546511     Delta-E=       -0.000000000002 Rises=F Damp=F
 DIIS: error= 9.32D-09 at cycle  21 NSaved=  20.
 NSaved=20 IEnMin=20 EnMin= -727.520785546511     IErMin=20 ErrMin= 9.32D-09
 ErrMax= 9.32D-09  0.00D+00 EMaxC= 1.00D-01 BMatC= 5.28D-14 BMatP= 2.28D-13
 IDIUse=1 WtCom= 1.00D+00 WtEn= 0.00D+00
 Coeff-Com: -0.280D-07 0.395D-06 0.192D-05 0.223D-05 0.823D-05-0.166D-04
 Coeff-Com: -0.569D-04-0.841D-04 0.102D-03 0.154D-02 0.163D-02-0.237D-02
 Coeff-Com: -0.119D-01-0.118D-01 0.805D-01 0.102D+00-0.273D+00-0.676D-01
 Coeff-Com:  0.454D+00 0.727D+00
 Coeff:     -0.280D-07 0.395D-06 0.192D-05 0.223D-05 0.823D-05-0.166D-04
 Coeff:     -0.569D-04-0.841D-04 0.102D-03 0.154D-02 0.163D-02-0.237D-02
 Coeff:     -0.119D-01-0.118D-01 0.805D-01 0.102D+00-0.273D+00-0.676D-01
 Coeff:      0.454D+00 0.727D+00
 Gap=     0.242 Goal=   None    Shift=    0.000
 Gap=     0.077 Goal=   None    Shift=    0.000
 RMSDP=4.27D-09 MaxDP=1.46D-07 DE=-2.27D-12 OVMax= 1.36D-06

 SCF Done:  E(UPBE1PBE) =  -727.520785547     A.U. after   21 cycles
            NFock= 21  Conv=0.43D-08     -V/T= 2.0028
 <Sx>= 0.0000 <Sy>= 0.0000 <Sz>= 0.5000 <S**2>= 0.7668 S= 0.5084
 <L.S>=  0.00000000000    
 KE= 7.254980764758D+02 PE=-2.954444686922D+03 EE= 8.762901306795D+02
 Annihilation of the first spin contaminant:
 S**2 before annihilation     0.7668,   after     0.7502
 Leave Link  502 at Thu Jan 30 14:26:35 2025, MaxMem=   104857600 cpu:             108.4 elap:             108.6
 (Enter /sw/cluster/pub/apps//g16/l601.exe)
 Copying SCF densities to generalized density rwf, IOpCl= 1 IROHF=0.

 **********************************************************************

            Population analysis using the SCF density.

 **********************************************************************

 Alpha  occ. eigenvalues --  -25.04570 -25.04561 -25.04172 -25.04165 -25.01680
 Alpha  occ. eigenvalues --  -10.60930 -10.60923 -10.60789 -10.60781 -10.58039
 Alpha  occ. eigenvalues --  -10.49306  -1.53557  -1.53293  -1.51979  -1.51775
 Alpha  occ. eigenvalues --   -1.49899  -1.19046  -1.06993  -1.05508  -0.93986
 Alpha  occ. eigenvalues --   -0.92695  -0.85400  -0.85156  -0.83044  -0.80795
 Alpha  occ. eigenvalues --   -0.78775  -0.78503  -0.77055  -0.76002  -0.73603
 Alpha  occ. eigenvalues --   -0.72491  -0.71964  -0.70293  -0.69135  -0.67840
 Alpha  occ. eigenvalues --   -0.66109  -0.65126  -0.63108  -0.61765  -0.53393
 Alpha  occ. eigenvalues --   -0.51665
 Alpha virt. eigenvalues --   -0.27451  -0.26152  -0.22771  -0.15711  -0.13691
 Alpha virt. eigenvalues --   -0.11102  -0.10329  -0.09795  -0.09285  -0.06800
 Alpha virt. eigenvalues --   -0.05669  -0.05474  -0.05084  -0.04875  -0.04654
 Alpha virt. eigenvalues --   -0.02188  -0.01150  -0.00858  -0.00612  -0.00275
 Alpha virt. eigenvalues --    0.00131   0.00166   0.01044   0.02269   0.03982
 Alpha virt. eigenvalues --    0.04498   0.05346   0.06550   0.07043   0.08179
 Alpha virt. eigenvalues --    0.08826   0.08987   0.09729   0.11575   0.13084
 Alpha virt. eigenvalues --    0.13835   0.15516   0.16395   0.16657   0.17698
 Alpha virt. eigenvalues --    0.17928   0.18475   0.19929   0.20473   0.20839
 Alpha virt. eigenvalues --    0.21540   0.22847   0.24803   0.24834   0.26757
 Alpha virt. eigenvalues --    0.27361   0.27459   0.27633   0.27988   0.28414
 Alpha virt. eigenvalues --    0.33365   0.34803   0.35142   0.35300   0.36493
 Alpha virt. eigenvalues --    0.36573   0.37438   0.38510   0.39548   0.41581
 Alpha virt. eigenvalues --    0.41933   0.42604   0.46826   0.51091   0.52282
 Alpha virt. eigenvalues --    0.53448   0.53574   0.57585   0.62578   0.62987
 Alpha virt. eigenvalues --    0.66530   0.68882   0.70474   0.72130   0.75216
 Alpha virt. eigenvalues --    0.75536   0.78749   0.78891   0.85632   0.86741
 Alpha virt. eigenvalues --    0.87564   0.88625   0.89363   0.92711   0.94910
 Alpha virt. eigenvalues --    1.05003   1.09216   1.17782   1.18372   1.22090
 Alpha virt. eigenvalues --    1.22690   1.22825   1.23884   1.24333   1.24656
 Alpha virt. eigenvalues --    1.26553   1.26893   1.29721   1.31388   1.33956
 Alpha virt. eigenvalues --    1.35226   1.36074   1.36534   1.36702   1.37464
 Alpha virt. eigenvalues --    1.38763   1.40745   1.49396   1.50718   1.53258
 Alpha virt. eigenvalues --    1.56541   1.60021   1.60218   1.60441   1.62187
 Alpha virt. eigenvalues --    1.74010   1.74551   1.80352   1.80541   1.81329
 Alpha virt. eigenvalues --    1.85739   1.87637   1.91732   1.95385   1.98455
 Alpha virt. eigenvalues --    2.00229   2.02188   2.06107   2.16336   2.18296
 Alpha virt. eigenvalues --    2.33397   2.34955   2.44223   2.45171   2.49105
 Alpha virt. eigenvalues --    2.53615   2.57514   2.62342   2.82541   2.83965
 Alpha virt. eigenvalues --    2.87485   2.88835   2.91945   2.96946   3.00264
 Alpha virt. eigenvalues --    3.13261   3.21420   3.39546   3.50053   3.51625
 Alpha virt. eigenvalues --    3.54355   3.54997   3.56015   3.56216   3.56331
 Alpha virt. eigenvalues --    3.58561   3.61892   3.62670   3.66268   3.72672
 Alpha virt. eigenvalues --    3.74526   3.74584   3.75856   3.78274   3.79259
 Alpha virt. eigenvalues --    3.83695   3.84008   3.86358   3.93491   3.97771
 Alpha virt. eigenvalues --    4.02725   4.49104   4.61001   4.64444   4.67844
 Alpha virt. eigenvalues --    4.72992   4.79666   6.08404   6.11175   6.13886
 Alpha virt. eigenvalues --    6.14322   6.18026   6.18948   6.23098   6.27237
 Alpha virt. eigenvalues --    6.28556   6.36560   6.36732   6.55943   6.61762
 Alpha virt. eigenvalues --    6.64827   6.72315  23.23327  23.65311  23.70470
 Alpha virt. eigenvalues --   23.82848  23.87735  23.99968  66.66308  66.68730
 Alpha virt. eigenvalues --   66.71780  66.72248  66.77952
  Beta  occ. eigenvalues --  -25.04301 -25.04292 -25.03911 -25.03906 -25.01729
  Beta  occ. eigenvalues --  -10.60520 -10.60515 -10.60351 -10.60344 -10.58232
  Beta  occ. eigenvalues --  -10.49470  -1.53017  -1.52700  -1.51484  -1.51211
  Beta  occ. eigenvalues --   -1.49886  -1.18038  -1.05357  -1.05144  -0.93513
  Beta  occ. eigenvalues --   -0.92075  -0.85097  -0.84900  -0.82781  -0.80362
  Beta  occ. eigenvalues --   -0.78415  -0.76858  -0.76742  -0.73615  -0.72302
  Beta  occ. eigenvalues --   -0.71909  -0.70629  -0.69699  -0.68920  -0.67682
  Beta  occ. eigenvalues --   -0.65855  -0.64791  -0.62893  -0.59040  -0.51149
  Beta virt. eigenvalues --   -0.43449  -0.24819  -0.23376  -0.22300  -0.15236
  Beta virt. eigenvalues --   -0.13538  -0.10855  -0.09854  -0.09702  -0.07349
  Beta virt. eigenvalues --   -0.06669  -0.05602  -0.05219  -0.04807  -0.04607
  Beta virt. eigenvalues --   -0.04502  -0.01765  -0.01152  -0.00511  -0.00477
  Beta virt. eigenvalues --   -0.00104   0.00230   0.00254   0.01805   0.02560
  Beta virt. eigenvalues --    0.04129   0.04540   0.05414   0.06891   0.07240
  Beta virt. eigenvalues --    0.08460   0.09026   0.09231   0.09797   0.11859
  Beta virt. eigenvalues --    0.13127   0.13910   0.15658   0.16651   0.17159
  Beta virt. eigenvalues --    0.17832   0.18005   0.18682   0.19969   0.20540
  Beta virt. eigenvalues --    0.20832   0.21618   0.23000   0.24942   0.24961
  Beta virt. eigenvalues --    0.26901   0.27490   0.27699   0.27777   0.28030
  Beta virt. eigenvalues --    0.29096   0.33616   0.35283   0.35429   0.36495
  Beta virt. eigenvalues --    0.36552   0.36616   0.37467   0.38545   0.39693
  Beta virt. eigenvalues --    0.41835   0.42750   0.43210   0.47326   0.51563
  Beta virt. eigenvalues --    0.52550   0.54127   0.54554   0.57706   0.62716
  Beta virt. eigenvalues --    0.63236   0.67018   0.70295   0.71078   0.72216
  Beta virt. eigenvalues --    0.75729   0.75790   0.78874   0.79771   0.86009
  Beta virt. eigenvalues --    0.86893   0.88299   0.88760   0.91230   0.93777
  Beta virt. eigenvalues --    0.95633   1.05593   1.09752   1.18331   1.18597
  Beta virt. eigenvalues --    1.22263   1.23079   1.23548   1.24275   1.24736
  Beta virt. eigenvalues --    1.24997   1.26957   1.26988   1.29850   1.31857
  Beta virt. eigenvalues --    1.34100   1.35336   1.36121   1.36801   1.37100
  Beta virt. eigenvalues --    1.37515   1.38999   1.41491   1.50830   1.51360
  Beta virt. eigenvalues --    1.53514   1.57732   1.60201   1.60888   1.61914
  Beta virt. eigenvalues --    1.62859   1.74351   1.74773   1.80706   1.80749
  Beta virt. eigenvalues --    1.81655   1.86825   1.87790   1.92446   1.95690
  Beta virt. eigenvalues --    1.99074   2.00438   2.03215   2.06231   2.16596
  Beta virt. eigenvalues --    2.18649   2.34876   2.35136   2.45264   2.46308
  Beta virt. eigenvalues --    2.49603   2.53611   2.59870   2.62438   2.83932
  Beta virt. eigenvalues --    2.84108   2.87847   2.89151   2.92149   2.97183
  Beta virt. eigenvalues --    3.00512   3.13634   3.21677   3.39871   3.50410
  Beta virt. eigenvalues --    3.52134   3.55049   3.55737   3.56757   3.56833
  Beta virt. eigenvalues --    3.56962   3.58618   3.62689   3.63166   3.66567
  Beta virt. eigenvalues --    3.73321   3.74624   3.75410   3.76502   3.78731
  Beta virt. eigenvalues --    3.80095   3.84181   3.84395   3.86472   3.93587
  Beta virt. eigenvalues --    3.97898   4.02856   4.49371   4.61317   4.65261
  Beta virt. eigenvalues --    4.68060   4.73327   4.79834   6.09295   6.12227
  Beta virt. eigenvalues --    6.14405   6.15367   6.18173   6.19459   6.23285
  Beta virt. eigenvalues --    6.27314   6.28741   6.36676   6.36896   6.56158
  Beta virt. eigenvalues --    6.61883   6.65058   6.72448  23.23585  23.65751
  Beta virt. eigenvalues --   23.70613  23.83285  23.87821  24.00028  66.66488
  Beta virt. eigenvalues --   66.68955  66.71895  66.72472  66.78064
          Condensed to atoms (all electrons):
               1          2          3          4          5          6
     1  C   13.196944  -0.687203   1.222577  -3.221469  -3.059158  -1.366594
     2  C   -0.687203  13.402446  -0.687964  -1.604527  -3.589410  -1.602142
     3  C    1.222577  -0.687964  13.196916  -1.362456  -3.063735  -3.219423
     4  C   -3.221469  -1.604527  -1.362456  15.288824  -0.146228  -3.367526
     5  C   -3.059158  -3.589410  -3.063735  -0.146228  15.684849  -0.143613
     6  C   -1.366594  -1.602142  -3.219423  -3.367526  -0.143613  15.285834
     7  H   -0.114289   0.548321  -0.114283  -0.013405  -0.013586  -0.013353
     8  F   -0.006939  -0.214799   0.560572  -0.233503  -0.018017   0.007567
     9  F    0.003303  -0.061250  -0.261528   0.663124  -0.205934  -0.041690
    10  F   -0.057889   0.031032  -0.057819  -0.215511   0.594897  -0.215396
    11  F   -0.261247  -0.061324   0.003347  -0.041816  -0.205771   0.662730
    12  F    0.560566  -0.214970  -0.006911   0.007496  -0.017936  -0.233299
               7          8          9         10         11         12
     1  C   -0.114289  -0.006939   0.003303  -0.057889  -0.261247   0.560566
     2  C    0.548321  -0.214799  -0.061250   0.031032  -0.061324  -0.214970
     3  C   -0.114283   0.560572  -0.261528  -0.057819   0.003347  -0.006911
     4  C   -0.013405  -0.233503   0.663124  -0.215511  -0.041816   0.007496
     5  C   -0.013586  -0.018017  -0.205934   0.594897  -0.205771  -0.017936
     6  C   -0.013353   0.007567  -0.041690  -0.215396   0.662730  -0.233299
     7  H    0.400598  -0.017242   0.000414   0.000568   0.000412  -0.017248
     8  F   -0.017242   8.962423   0.007614   0.000534   0.000003   0.000309
     9  F    0.000414   0.007614   8.965502   0.004797   0.000423   0.000004
    10  F    0.000568   0.000534   0.004797   9.017361   0.004774   0.000534
    11  F    0.000412   0.000003   0.000423   0.004774   8.965850   0.007619
    12  F   -0.017248   0.000309   0.000004   0.000534   0.007619   8.962188
          Atomic-Atomic Spin Densities.
               1          2          3          4          5          6
     1  C    0.112308   0.136443  -0.123505   0.103058  -0.077690   0.190462
     2  C    0.136443  -0.315297   0.136210  -0.122896   0.110600  -0.122790
     3  C   -0.123505   0.136210   0.111290   0.190468  -0.077523   0.103016
     4  C    0.103058  -0.122896   0.190468   0.108299   0.100361  -0.125222
     5  C   -0.077690   0.110600  -0.077523   0.100361  -0.255177   0.100082
     6  C    0.190462  -0.122790   0.103016  -0.125222   0.100082   0.107155
     7  H    0.007123  -0.010066   0.007118  -0.003607   0.002861  -0.003609
     8  F    0.000469   0.000806  -0.039560  -0.002853  -0.000493  -0.000378
     9  F   -0.004483   0.007056  -0.008446  -0.031709  -0.002867   0.003307
    10  F    0.008546  -0.007565   0.008543  -0.012702   0.033514  -0.012691
    11  F   -0.008459   0.007046  -0.004476   0.003296  -0.002853  -0.031519
    12  F   -0.039721   0.000809   0.000465  -0.000377  -0.000502  -0.002828
               7          8          9         10         11         12
     1  C    0.007123   0.000469  -0.004483   0.008546  -0.008459  -0.039721
     2  C   -0.010066   0.000806   0.007056  -0.007565   0.007046   0.000809
     3  C    0.007118  -0.039560  -0.008446   0.008543  -0.004476   0.000465
     4  C   -0.003607  -0.002853  -0.031709  -0.012702   0.003296  -0.000377
     5  C    0.002861  -0.000493  -0.002867   0.033514  -0.002853  -0.000502
     6  C   -0.003609  -0.000378   0.003307  -0.012691  -0.031519  -0.002828
     7  H    0.003555  -0.000179   0.000139  -0.000074   0.000139  -0.000179
     8  F   -0.000179   0.096025   0.001510  -0.000004  -0.000005  -0.000008
     9  F    0.000139   0.001510   0.098183   0.000210  -0.000039  -0.000005
    10  F   -0.000074  -0.000004   0.000210  -0.027434   0.000206  -0.000004
    11  F    0.000139  -0.000005  -0.000039   0.000206   0.097787   0.001508
    12  F   -0.000179  -0.000008  -0.000005  -0.000004   0.001508   0.096339
 Mulliken charges and spin densities:
               1          2
     1  C   -0.208602   0.304551
     2  C    0.741792  -0.179646
     3  C   -0.209294   0.303602
     4  C    0.246998   0.206116
     5  C    0.183643  -0.069688
     6  C    0.246905   0.204986
     7  H    0.353094   0.003218
     8  F   -0.048522   0.055329
     9  F   -0.074778   0.062856
    10  F   -0.107882  -0.009455
    11  F   -0.075001   0.062632
    12  F   -0.048353   0.055498
 Sum of Mulliken charges =   1.00000   1.00000
 Mulliken charges and spin densities with hydrogens summed into heavy atoms:
               1          2
     1  C   -0.208602   0.304551
     2  C    1.094886  -0.176427
     3  C   -0.209294   0.303602
     4  C    0.246998   0.206116
     5  C    0.183643  -0.069688
     6  C    0.246905   0.204986
     8  F   -0.048522   0.055329
     9  F   -0.074778   0.062856
    10  F   -0.107882  -0.009455
    11  F   -0.075001   0.062632
    12  F   -0.048353   0.055498
 Electronic spatial extent (au):  <R**2>=           1561.9325
 Charge=              1.0000 electrons
 Dipole moment (field-independent basis, Debye):
    X=              1.1320    Y=             -0.6538    Z=             -0.0000  Tot=              1.3073
 Quadrupole moment (field-independent basis, Debye-Ang):
   XX=            -48.1703   YY=            -49.2259   ZZ=            -53.3595
   XY=             -0.9060   XZ=             -0.0000   YZ=              0.0000
 Traceless Quadrupole moment (field-independent basis, Debye-Ang):
   XX=              2.0816   YY=              1.0260   ZZ=             -3.1076
   XY=             -0.9060   XZ=             -0.0000   YZ=              0.0000
 Octapole moment (field-independent basis, Debye-Ang**2):
  XXX=             40.6061  YYY=            -17.8618  ZZZ=              0.0000  XYY=             13.5326
  XXY=            -13.3933  XXZ=              0.0000  XZZ=              9.0648  YZZ=             -5.2335
  YYZ=             -0.0000  XYZ=             -0.0000
 Hexadecapole moment (field-independent basis, Debye-Ang**3):
 XXXX=           -680.0847 YYYY=           -786.3589 ZZZZ=            -44.3399 XXXY=            -49.6563
 XXXZ=              0.0000 YYYX=            -42.3078 YYYZ=             -0.0000 ZZZX=              0.0000
 ZZZY=             -0.0000 XXYY=           -241.5684 XXZZ=           -122.7237 YYZZ=           -135.9248
 XXYZ=             -0.0000 YYXZ=              0.0000 ZZXY=            -11.4252
 N-N= 6.251356942200D+02 E-N=-2.954444686889D+03  KE= 7.254980764758D+02
                          Isotropic Fermi Contact Couplings
        Atom                 a.u.       MegaHertz       Gauss      10(-4) cm-1
     1  C(13)              0.00690       7.75959       2.76882       2.58832
     2  C(13)             -0.01935     -21.75811      -7.76383      -7.25772
     3  C(13)              0.00681       7.65978       2.73320       2.55503
     4  C(13)              0.00852       9.57288       3.41584       3.19317
     5  C(13)             -0.02538     -28.53481     -10.18193      -9.51819
     6  C(13)              0.00842       9.46803       3.37843       3.15819
     7  H(1)               0.00095       4.26152       1.52062       1.42149
     8  F(19)              0.01256      52.85162      18.85877      17.62940
     9  F(19)              0.01349      56.77019      20.25702      18.93650
    10  F(19)             -0.00401     -16.86268      -6.01702      -5.62479
    11  F(19)              0.01344      56.54492      20.17663      18.86135
    12  F(19)              0.01260      53.03382      18.92379      17.69018
 --------------------------------------------------------
       Center         ----  Spin Dipole Couplings  ----
                      3XX-RR        3YY-RR        3ZZ-RR
 --------------------------------------------------------
     1   Atom       -0.154691     -0.168853      0.323544
     2   Atom        0.049910      0.051972     -0.101882
     3   Atom       -0.163927     -0.158517      0.322444
     4   Atom       -0.167390     -0.181523      0.348913
     5   Atom        0.060594      0.061298     -0.121892
     6   Atom       -0.176579     -0.170861      0.347440
     7   Atom        0.001653      0.004098     -0.005751
     8   Atom       -0.265092     -0.283271      0.548363
     9   Atom       -0.289527     -0.281119      0.570647
    10   Atom        0.055836      0.043732     -0.099568
    11   Atom       -0.273841     -0.294694      0.568535
    12   Atom       -0.278138     -0.271869      0.550006
 --------------------------------------------------------
                        XY            XZ            YZ
 --------------------------------------------------------
     1   Atom       -0.000963     -0.000000      0.000000
     2   Atom        0.001766      0.000000      0.000000
     3   Atom       -0.006642     -0.000000      0.000000
     4   Atom       -0.000783      0.000000     -0.000000
     5   Atom        0.000576      0.000000     -0.000000
     6   Atom       -0.006529      0.000000     -0.000000
     7   Atom        0.002076      0.000000      0.000000
     8   Atom       -0.001665     -0.000000      0.000000
     9   Atom       -0.009683      0.000000     -0.000000
    10   Atom       -0.010480      0.000000     -0.000000
    11   Atom       -0.001213      0.000000     -0.000000
    12   Atom       -0.008737     -0.000000      0.000000
 --------------------------------------------------------


 ---------------------------------------------------------------------------------
              Anisotropic Spin Dipole Couplings in Principal Axis System
 ---------------------------------------------------------------------------------

       Atom             a.u.   MegaHertz   Gauss  10(-4) cm-1        Axes

              Baa    -0.1689   -22.667    -8.088    -7.561  0.0675  0.9977 -0.0000
     1 C(13)  Bbb    -0.1546   -20.749    -7.404    -6.921  0.9977 -0.0675  0.0000
              Bcc     0.3235    43.416    15.492    14.482 -0.0000  0.0000  1.0000
 
              Baa    -0.1019   -13.672    -4.878    -4.560 -0.0000 -0.0000  1.0000
     2 C(13)  Bbb     0.0489     6.561     2.341     2.189  0.8672 -0.4979  0.0000
              Bcc     0.0530     7.110     2.537     2.372  0.4979  0.8672  0.0000
 
              Baa    -0.1684   -22.597    -8.063    -7.537  0.8298  0.5580  0.0000
     3 C(13)  Bbb    -0.1541   -20.672    -7.376    -6.895 -0.5580  0.8298 -0.0000
              Bcc     0.3224    43.269    15.439    14.433 -0.0000  0.0000  1.0000
 
              Baa    -0.1816   -24.364    -8.694    -8.127  0.0551  0.9985  0.0000
     4 C(13)  Bbb    -0.1673   -22.456    -8.013    -7.491  0.9985 -0.0551 -0.0000
              Bcc     0.3489    46.821    16.707    15.618  0.0000 -0.0000  1.0000
 
              Baa    -0.1219   -16.357    -5.837    -5.456 -0.0000  0.0000  1.0000
     5 C(13)  Bbb     0.0603     8.088     2.886     2.698  0.8722 -0.4891  0.0000
              Bcc     0.0616     8.269     2.951     2.758  0.4891  0.8722 -0.0000
 
              Baa    -0.1808   -24.268    -8.659    -8.095  0.8370  0.5472 -0.0000
     6 C(13)  Bbb    -0.1666   -22.355    -7.977    -7.457 -0.5472  0.8370  0.0000
              Bcc     0.3474    46.623    16.636    15.552  0.0000 -0.0000  1.0000
 
              Baa    -0.0058    -3.068    -1.095    -1.023 -0.0000  0.0000  1.0000
     7 H(1)   Bbb     0.0005     0.249     0.089     0.083  0.8682 -0.4962  0.0000
              Bcc     0.0053     2.819     1.006     0.940  0.4962  0.8682  0.0000
 
              Baa    -0.2834  -142.342   -50.791   -47.480  0.0905  0.9959 -0.0000
     8 F(19)  Bbb    -0.2649  -133.060   -47.479   -44.384  0.9959 -0.0905  0.0000
              Bcc     0.5484   275.402    98.270    91.864 -0.0000  0.0000  1.0000
 
              Baa    -0.2959  -148.598   -53.024   -49.567  0.8361  0.5485 -0.0000
     9 F(19)  Bbb    -0.2748  -137.995   -49.240   -46.030 -0.5485  0.8361  0.0000
              Bcc     0.5706   286.593   102.264    95.597  0.0000 -0.0000  1.0000
 
              Baa    -0.0996   -50.005   -17.843   -16.680  0.0000  0.0000  1.0000
    10 F(19)  Bbb     0.0377    18.925     6.753     6.313  0.5000  0.8661 -0.0000
              Bcc     0.0619    31.081    11.090    10.367  0.8661 -0.5000  0.0000
 
              Baa    -0.2948  -148.038   -52.824   -49.380  0.0579  0.9983  0.0000
    11 F(19)  Bbb    -0.2738  -137.495   -49.062   -45.863  0.9983 -0.0579 -0.0000
              Bcc     0.5685   285.533   101.885    95.244  0.0000 -0.0000  1.0000
 
              Baa    -0.2843  -142.776   -50.946   -47.625  0.8178  0.5755  0.0000
    12 F(19)  Bbb    -0.2657  -133.452   -47.619   -44.515 -0.5755  0.8178 -0.0000
              Bcc     0.5500   276.227    98.565    92.139 -0.0000  0.0000  1.0000
 

 ---------------------------------------------------------------------------------

 No NMR shielding tensors so no spin-rotation constants.
 Leave Link  601 at Thu Jan 30 14:26:35 2025, MaxMem=   104857600 cpu:               0.1 elap:               0.1
 (Enter /sw/cluster/pub/apps//g16/l701.exe)
 ... and contract with generalized density number  0.
 Compute integral first derivatives.
 Leave Link  701 at Thu Jan 30 14:26:35 2025, MaxMem=   104857600 cpu:               0.1 elap:               0.1
 (Enter /sw/cluster/pub/apps//g16/l702.exe)
 L702 exits ... SP integral derivatives will be done elsewhere.
 Leave Link  702 at Thu Jan 30 14:26:35 2025, MaxMem=   104857600 cpu:               0.0 elap:               0.0
 (Enter /sw/cluster/pub/apps//g16/l703.exe)
 Integral derivatives from FoFJK, PRISM(SPDF).
 Compute integral first derivatives, UseDBF=F ICtDFT=           0.
 Calling FoFJK, ICntrl=      2127 FMM=F ISym2X=0 I1Cent= 0 IOpClX= 1 NMat=1 NMatS=1 NMatT=0.
 FoFJK:  IHMeth= 1 ICntrl=    2127 DoSepK=F KAlg= 0 I1Cent=           0 FoldK=F
 IRaf=         0 NMat=       1 IRICut=       1 DoRegI=T DoRafI=F ISym2E= 0 IDoP0=0 IntGTp=1.
 FoFCou: FMM=F IPFlag=           0 FMFlag=      100000 FMFlg1=         800
         NFxFlg=           0 DoJE=F BraDBF=F KetDBF=F FulRan=T
         wScrn=  0.000000 ICntrl=      2127 IOpCl=  1 I1Cent=           0 NGrid=           0
         NMat0=    1 NMatS0=      1 NMatT0=    0 NMatD0=    1 NMtDS0=    0 NMtDT0=    0
 Symmetry not used in FoFCou.
 Leave Link  703 at Thu Jan 30 14:26:52 2025, MaxMem=   104857600 cpu:              16.8 elap:              16.8
 (Enter /sw/cluster/pub/apps//g16/l716.exe)
 Dipole        = 4.45375058D-01-2.57225799D-01-7.66219036D-10
 -------------------------------------------------------------------
 Center     Atomic                   Forces (Hartrees/Bohr)
 Number     Number              X              Y              Z
 -------------------------------------------------------------------
      1        6           0.065438435   -0.010732645   -0.000000000
      2        6           0.004571453   -0.002736361   -0.000000000
      3        6           0.042122930   -0.051277781    0.000000000
      4        6          -0.065443848    0.006505218    0.000000000
      5        6          -0.027030504    0.015686921   -0.000000000
      6        6          -0.038383804    0.053332128    0.000000000
      7        1           0.001397389   -0.000819959    0.000000000
      8        9          -0.002077710    0.036281669   -0.000000000
      9        9           0.032682732    0.016413554   -0.000000000
     10        9           0.017103425   -0.009829000    0.000000000
     11        9           0.002097425   -0.036507742   -0.000000000
     12        9          -0.032477924   -0.016316002    0.000000000
 -------------------------------------------------------------------
 Cartesian Forces:  Max     0.065443848 RMS     0.025904384
 Leave Link  716 at Thu Jan 30 14:26:52 2025, MaxMem=   104857600 cpu:               0.0 elap:               0.0
 (Enter /sw/cluster/pub/apps//g16/l103.exe)

 GradGradGradGradGradGradGradGradGradGradGradGradGradGradGradGradGradGrad
 Berny optimization.
 FormGI is forming the generalized inverse of G from B-inverse, IUseBI=4.
 Internal  Forces:  Max     0.045632684 RMS     0.013812127
 Search for a local minimum.
 Step number   1 out of a maximum of   64
 All quantities printed in internal units (Hartrees-Bohrs-Radians)
 RMS Force = .13812D-01 SwitMx=.10000D-02 MixMth= 1
 Mixed Optimization -- RFO/linear search
 Second derivative matrix not updated -- first step.
 ITU=  0
     Eigenvalues ---    0.02246   0.02250   0.02255   0.02256   0.02272
     Eigenvalues ---    0.02290   0.02295   0.02309   0.02321   0.16000
     Eigenvalues ---    0.23496   0.25000   0.25000   0.25000   0.25000
     Eigenvalues ---    0.25000   0.25000   0.25000   0.35682   0.43803
     Eigenvalues ---    0.43815   0.47694   0.47885   0.48209   0.48541
     Eigenvalues ---    0.59475   0.59479   0.60529   0.60537   0.61123
 RFO step:  Lambda=-1.92165232D-02 EMin= 2.24582025D-02
 Linear search not attempted -- first point.
 Iteration  1 RMS(Cart)=  0.03011752 RMS(Int)=  0.00023824
 Iteration  2 RMS(Cart)=  0.00041006 RMS(Int)=  0.00001087
 Iteration  3 RMS(Cart)=  0.00000009 RMS(Int)=  0.00001087
 ITry= 1 IFail=0 DXMaxC= 7.50D-02 DCOld= 1.00D+10 DXMaxT= 3.00D-01 DXLimC= 3.00D+00 Rises=F
 Variable       Old X    -DE/DX   Delta X   Delta X   Delta X     New X
                                 (Linear)    (Quad)   (Total)
    R1        2.61241  -0.00348   0.00000  -0.00677  -0.00678   2.60563
    R2        2.62066   0.04557   0.00000   0.09151   0.09151   2.71217
    R3        2.51355  -0.03626   0.00000  -0.05905  -0.05905   2.45450
    R4        2.61233  -0.00358   0.00000  -0.00697  -0.00699   2.60534
    R5        2.04582   0.00162   0.00000   0.00431   0.00431   2.05013
    R6        2.62057   0.04563   0.00000   0.09162   0.09162   2.71218
    R7        2.51358  -0.03625   0.00000  -0.05905  -0.05905   2.45453
    R8        2.62322  -0.00084   0.00000  -0.00181  -0.00180   2.62142
    R9        2.50518  -0.03652   0.00000  -0.05847  -0.05847   2.44670
   R10        2.62314  -0.00097   0.00000  -0.00208  -0.00206   2.62108
   R11        2.50063  -0.01973   0.00000  -0.03129  -0.03129   2.46934
   R12        2.50524  -0.03652   0.00000  -0.05848  -0.05848   2.44676
    A1        2.11665   0.00451   0.00000   0.01757   0.01756   2.13421
    A2        2.09536   0.00095   0.00000   0.00313   0.00314   2.09850
    A3        2.07118  -0.00546   0.00000  -0.02070  -0.02069   2.05048
    A4        2.07195  -0.00829   0.00000  -0.03348  -0.03352   2.03844
    A5        2.10545   0.00416   0.00000   0.01681   0.01683   2.12228
    A6        2.10578   0.00413   0.00000   0.01667   0.01669   2.12247
    A7        2.11631   0.00452   0.00000   0.01762   0.01761   2.13391
    A8        2.09574   0.00092   0.00000   0.00301   0.00302   2.09875
    A9        2.07114  -0.00544   0.00000  -0.02063  -0.02062   2.05052
   A10        2.08043   0.00444   0.00000   0.01693   0.01695   2.09738
   A11        2.11065  -0.00463   0.00000  -0.01743  -0.01743   2.09321
   A12        2.09211   0.00019   0.00000   0.00049   0.00048   2.09260
   A13        2.10098  -0.00966   0.00000  -0.03569  -0.03566   2.06533
   A14        2.09080   0.00487   0.00000   0.01799   0.01798   2.10878
   A15        2.09140   0.00479   0.00000   0.01769   0.01768   2.10908
   A16        2.08005   0.00448   0.00000   0.01704   0.01706   2.09711
   A17        2.11061  -0.00463   0.00000  -0.01739  -0.01740   2.09321
   A18        2.09253   0.00015   0.00000   0.00035   0.00034   2.09287
    D1       -0.00000  -0.00000   0.00000  -0.00000   0.00000   0.00000
    D2        3.14159   0.00000   0.00000   0.00000   0.00000   3.14159
    D3        3.14159  -0.00000   0.00000  -0.00000   0.00000   3.14159
    D4        0.00000   0.00000   0.00000   0.00000   0.00000   0.00000
    D5        0.00000  -0.00000   0.00000  -0.00000   0.00000   0.00000
    D6        3.14159   0.00000   0.00000   0.00000   0.00000   3.14159
    D7        3.14159  -0.00000   0.00000  -0.00000   0.00000   3.14159
    D8       -0.00000   0.00000   0.00000   0.00000   0.00000   0.00000
    D9       -0.00000   0.00000   0.00000   0.00000   0.00000   0.00000
   D10        3.14159  -0.00000   0.00000  -0.00000   0.00000   3.14159
   D11        3.14159   0.00000   0.00000   0.00000   0.00000   3.14159
   D12        0.00000  -0.00000   0.00000  -0.00000  -0.00000   0.00000
   D13        0.00000  -0.00000   0.00000  -0.00000  -0.00000   0.00000
   D14        3.14159  -0.00000   0.00000  -0.00000   0.00000   3.14159
   D15        3.14159   0.00000   0.00000   0.00000   0.00000   3.14159
   D16       -0.00000   0.00000   0.00000   0.00000   0.00000   0.00000
   D17        0.00000  -0.00000   0.00000  -0.00000  -0.00000   0.00000
   D18        3.14159   0.00000   0.00000   0.00000   0.00000   3.14159
   D19        3.14159  -0.00000   0.00000  -0.00000   0.00000   3.14159
   D20       -0.00000   0.00000   0.00000   0.00000   0.00000   0.00000
   D21       -0.00000   0.00000   0.00000   0.00000   0.00000   0.00000
   D22        3.14159  -0.00000   0.00000  -0.00000   0.00000   3.14159
   D23        3.14159  -0.00000   0.00000  -0.00000   0.00000   3.14159
   D24        0.00000  -0.00000   0.00000  -0.00000  -0.00000   0.00000
         Item               Value     Threshold  Converged?
 Maximum Force            0.045633     0.000450     NO 
 RMS     Force            0.013812     0.000300     NO 
 Maximum Displacement     0.074992     0.001800     NO 
 RMS     Displacement     0.030209     0.001200     NO 
 Predicted change in Energy=-9.972883D-03
 Lowest energy point so far.  Saving SCF results.
 GradGradGradGradGradGradGradGradGradGradGradGradGradGradGradGradGradGrad

 Leave Link  103 at Thu Jan 30 14:26:52 2025, MaxMem=   104857600 cpu:               0.0 elap:               0.0
 (Enter /sw/cluster/pub/apps//g16/l202.exe)
                          Input orientation:                          
 ---------------------------------------------------------------------
 Center     Atomic      Atomic             Coordinates (Angstroms)
 Number     Number       Type             X           Y           Z
 ---------------------------------------------------------------------
      1          6           0        1.204255    0.660602    0.000000
      2          6           0        1.242903   -0.717694    0.000000
      3          6           0        0.030144   -1.373433    0.000000
      4          6           0       -1.221033   -0.670280    0.000000
      5          6           0       -1.241254    0.716770    0.000000
      6          6           0       -0.030143    1.392801    0.000000
      7          1           0        2.182521   -1.259994   -0.000000
      8          9           0       -0.011777   -2.671639    0.000000
      9          9           0       -2.333948   -1.331925   -0.000000
     10          9           0       -2.373033    1.369906   -0.000000
     11          9           0       -0.013359    2.687464   -0.000000
     12          9           0        2.307658    1.345839   -0.000000
 ---------------------------------------------------------------------
                    Distance matrix (angstroms):
                    1          2          3          4          5
     1  C    0.000000
     2  C    1.378838   0.000000
     3  C    2.348581   1.378687   0.000000
     4  C    2.766455   2.464393   1.435224   0.000000
     5  C    2.446154   2.868575   2.446508   1.387198   0.000000
     6  C    1.435220   2.464719   2.766891   2.382126   1.387014
     7  H    2.155386   1.084883   2.155364   3.454265   3.953458
     8  F    3.547191   2.322095   1.298883   2.338320   3.604571
     9  F    4.060670   3.629207   2.364457   1.294740   2.321881
    10  F    3.646931   4.175293   3.647077   2.342961   1.306718
    11  F    2.364477   3.629503   4.061130   3.568322   2.321930
    12  F    1.298864   2.322041   3.547042   4.064037   3.604234
                    6          7          8          9         10
     6  C    0.000000
     7  H    3.454447   0.000000
     8  F    4.064482   2.609155   0.000000
     9  F    3.568144   4.517042   2.680916   0.000000
    10  F    2.343002   5.260176   4.680771   2.702114   0.000000
    11  F    1.294771   4.517113   5.359103   4.641187   2.702595
    12  F    2.338273   2.608836   4.638956   5.358631   4.680753
                   11         12
    11  F    0.000000
    12  F    2.680872   0.000000
 Symmetry turned off by external request.
 Stoichiometry    C6HF5(1+,2)
 Framework group  CS[SG(C6HF5)]
 Deg. of freedom    21
 Full point group                 CS      NOp   2
 Rotational constants (GHZ):           1.4678651           1.0613130           0.6159567
 Leave Link  202 at Thu Jan 30 14:26:52 2025, MaxMem=   104857600 cpu:               0.0 elap:               0.0
 (Enter /sw/cluster/pub/apps//g16/l301.exe)
 Standard basis: 6-311++G(d,p) (5D, 7F)
 Ernie: Thresh=  0.10000D-02 Tol=  0.10000D-05 Strict=F.
   249 basis functions,   405 primitive gaussians,   260 cartesian basis functions
    41 alpha electrons       40 beta electrons
       nuclear repulsion energy       627.4917902060 Hartrees.
 IExCor= 1009 DFT=T Ex+Corr=PBE1PBE ExCW=0 ScaHFX=  0.250000
 ScaDFX=  0.750000  0.750000  1.000000  1.000000 ScalE2=  1.000000  1.000000
 IRadAn=      5 IRanWt=     -1 IRanGd=            0 ICorTp=0 IEmpDi=  4
 NAtoms=   12 NActive=   12 NUniq=   12 SFac= 1.00D+00 NAtFMM=   60 NAOKFM=F Big=F
 Integral buffers will be    131072 words long.
 Raffenetti 2 integral format.
 Two-electron integral symmetry is turned off.
 Leave Link  301 at Thu Jan 30 14:26:52 2025, MaxMem=   104857600 cpu:               0.0 elap:               0.0
 (Enter /sw/cluster/pub/apps//g16/l302.exe)
 NPDir=0 NMtPBC=     1 NCelOv=     1 NCel=       1 NClECP=     1 NCelD=      1
         NCelK=      1 NCelE2=     1 NClLst=     1 CellRange=     0.0.
 One-electron integrals computed using PRISM.
 NBasis=   249 RedAO= T EigKep=  1.98D-06  NBF=   249
 NBsUse=   249 1.00D-06 EigRej= -1.00D+00 NBFU=   249
 Precomputing XC quadrature grid using
 IXCGrd= 4 IRadAn=           5 IRanWt=          -1 IRanGd=           0 AccXCQ= 0.00D+00.
 Generated NRdTot=       0 NPtTot=           0 NUsed=           0 NTot=          32
 NSgBfM=   260   260   260   260   260 MxSgAt=    12 MxSgA2=    12.
 Leave Link  302 at Thu Jan 30 14:26:52 2025, MaxMem=   104857600 cpu:               0.1 elap:               0.1
 (Enter /sw/cluster/pub/apps//g16/l303.exe)
 DipDrv:  MaxL=1.
 Leave Link  303 at Thu Jan 30 14:26:52 2025, MaxMem=   104857600 cpu:               0.0 elap:               0.0
 (Enter /sw/cluster/pub/apps//g16/l401.exe)
 Initial guess from the checkpoint file:  "PFB-CAT.chk"
 B after Tr=    -0.006492    0.003785    0.000000
         Rot=    1.000000    0.000000    0.000000   -0.000003 Ang=  -0.00 deg.
 Guess basis will be translated and rotated to current coordinates.
 JPrj=2 DoOrth=T DoCkMO=T.
 Initial guess <Sx>= 0.0000 <Sy>= 0.0000 <Sz>= 0.5000 <S**2>= 0.7669 S= 0.5084
 Generating alternative initial guess.
 ExpMin= 3.60D-02 ExpMax= 1.14D+04 ExpMxC= 1.72D+03 IAcc=3 IRadAn=         5 AccDes= 0.00D+00
 Harris functional with IExCor= 1009 and IRadAn=       5 diagonalized for initial guess.
 HarFok:  IExCor= 1009 AccDes= 0.00D+00 IRadAn=         5 IDoV= 1 UseB2=F ITyADJ=14
 ICtDFT=  3500011 ScaDFX=  1.000000  1.000000  1.000000  1.000000
 FoFCou: FMM=F IPFlag=           0 FMFlag=      100000 FMFlg1=           0
         NFxFlg=           0 DoJE=T BraDBF=F KetDBF=T FulRan=T
         wScrn=  0.000000 ICntrl=       500 IOpCl=  0 I1Cent=   200000004 NGrid=           0
         NMat0=    1 NMatS0=      1 NMatT0=    0 NMatD0=    1 NMtDS0=    0 NMtDT0=    0
 Symmetry not used in FoFCou.
 Harris En= -727.619045247053    
 Leave Link  401 at Thu Jan 30 14:26:54 2025, MaxMem=   104857600 cpu:               1.4 elap:               1.4
 (Enter /sw/cluster/pub/apps//g16/l502.exe)
 Two-electron integral symmetry not used.
 UHF open shell SCF:
 Using DIIS extrapolation, IDIIS=  1040.
 NGot=   104857600 LenX=   104719020 LenY=   104650979
 Requested convergence on RMS density matrix=1.00D-08 within 128 cycles.
 Requested convergence on MAX density matrix=1.00D-06.
 Requested convergence on             energy=1.00D-06.
 No special actions if energy rises.
 Fock matrices will be formed incrementally for  20 cycles.

 Cycle   1  Pass 1  IDiag  1:
 FoFJK:  IHMeth= 1 ICntrl=       0 DoSepK=F KAlg= 0 I1Cent=           0 FoldK=F
 IRaf= 920000000 NMat=       1 IRICut=       1 DoRegI=T DoRafI=F ISym2E= 0 IDoP0=0 IntGTp=1.
 FoFCou: FMM=F IPFlag=           0 FMFlag=      100000 FMFlg1=           0
         NFxFlg=           0 DoJE=F BraDBF=F KetDBF=F FulRan=T
         wScrn=  0.000000 ICntrl=         0 IOpCl=  1 I1Cent=           0 NGrid=           0
         NMat0=    1 NMatS0=      1 NMatT0=    0 NMatD0=    1 NMtDS0=    0 NMtDT0=    0
 Symmetry not used in FoFCou.
 E= -727.519009869082    
 DIIS: error= 6.80D-03 at cycle   1 NSaved=   1.
 NSaved= 1 IEnMin= 1 EnMin= -727.519009869082     IErMin= 1 ErrMin= 6.80D-03
 ErrMax= 6.80D-03  0.00D+00 EMaxC= 1.00D-01 BMatC= 3.44D-02 BMatP= 3.44D-02
 IDIUse=3 WtCom= 9.32D-01 WtEn= 6.80D-02
 Coeff-Com:  0.100D+01
 Coeff-En:   0.100D+01
 Coeff:      0.100D+01
 Gap=     0.493 Goal=   None    Shift=    0.000
 Gap=     0.488 Goal=   None    Shift=    0.000
 GapD=    0.488 DampG=2.000 DampE=1.000 DampFc=2.0000 IDamp=-1.
 RMSDP=8.06D-03 MaxDP=3.72D-01              OVMax= 6.11D-02

 Cycle   2  Pass 1  IDiag  1:
 RMSU=  4.05D-03    CP:  8.88D-01
 E= -727.531247873541     Delta-E=       -0.012238004460 Rises=F Damp=F
 DIIS: error= 2.84D-03 at cycle   2 NSaved=   2.
 NSaved= 2 IEnMin= 2 EnMin= -727.531247873541     IErMin= 2 ErrMin= 2.84D-03
 ErrMax= 2.84D-03  0.00D+00 EMaxC= 1.00D-01 BMatC= 5.47D-03 BMatP= 3.44D-02
 IDIUse=3 WtCom= 9.72D-01 WtEn= 2.84D-02
 Coeff-Com:  0.164D+00 0.836D+00
 Coeff-En:   0.000D+00 0.100D+01
 Coeff:      0.159D+00 0.841D+00
 Gap=     0.241 Goal=   None    Shift=    0.000
 Gap=     0.089 Goal=   None    Shift=    0.000
 RMSDP=6.83D-04 MaxDP=2.39D-02 DE=-1.22D-02 OVMax= 1.89D-02

 Cycle   3  Pass 1  IDiag  1:
 RMSU=  6.06D-04    CP:  8.85D-01  1.06D+00
 E= -727.531100837636     Delta-E=        0.000147035905 Rises=F Damp=F
 DIIS: error= 3.20D-03 at cycle   3 NSaved=   3.
 NSaved= 3 IEnMin= 2 EnMin= -727.531247873541     IErMin= 2 ErrMin= 2.84D-03
 ErrMax= 3.20D-03  0.00D+00 EMaxC= 1.00D-01 BMatC= 6.70D-03 BMatP= 5.47D-03
 IDIUse=3 WtCom= 1.50D-01 WtEn= 8.50D-01
 Coeff-Com: -0.179D-01 0.532D+00 0.486D+00
 Coeff-En:   0.000D+00 0.532D+00 0.468D+00
 Coeff:     -0.269D-02 0.532D+00 0.471D+00
 Gap=     0.240 Goal=   None    Shift=    0.000
 Gap=     0.093 Goal=   None    Shift=    0.000
 RMSDP=5.01D-04 MaxDP=2.11D-02 DE= 1.47D-04 OVMax= 8.80D-03

 Cycle   4  Pass 1  IDiag  1:
 RMSU=  1.80D-04    CP:  8.79D-01  1.07D+00  5.83D-01
 E= -727.532177238589     Delta-E=       -0.001076400953 Rises=F Damp=F
 DIIS: error= 3.17D-04 at cycle   4 NSaved=   4.
 NSaved= 4 IEnMin= 4 EnMin= -727.532177238589     IErMin= 4 ErrMin= 3.17D-04
 ErrMax= 3.17D-04  0.00D+00 EMaxC= 1.00D-01 BMatC= 5.79D-05 BMatP= 5.47D-03
 IDIUse=3 WtCom= 9.97D-01 WtEn= 3.17D-03
 Coeff-Com: -0.101D-01 0.149D+00 0.158D+00 0.703D+00
 Coeff-En:   0.000D+00 0.000D+00 0.000D+00 0.100D+01
 Coeff:     -0.101D-01 0.148D+00 0.157D+00 0.704D+00
 Gap=     0.240 Goal=   None    Shift=    0.000
 Gap=     0.093 Goal=   None    Shift=    0.000
 RMSDP=1.55D-04 MaxDP=7.61D-03 DE=-1.08D-03 OVMax= 1.12D-03

 Cycle   5  Pass 1  IDiag  1:
 RMSU=  6.76D-05    CP:  8.81D-01  1.07D+00  6.07D-01  5.79D-01
 E= -727.532182496111     Delta-E=       -0.000005257522 Rises=F Damp=F
 DIIS: error= 2.67D-04 at cycle   5 NSaved=   5.
 NSaved= 5 IEnMin= 5 EnMin= -727.532182496111     IErMin= 5 ErrMin= 2.67D-04
 ErrMax= 2.67D-04  0.00D+00 EMaxC= 1.00D-01 BMatC= 3.15D-05 BMatP= 5.79D-05
 IDIUse=3 WtCom= 9.97D-01 WtEn= 2.67D-03
 Coeff-Com: -0.467D-02 0.424D-01 0.506D-01 0.433D+00 0.478D+00
 Coeff-En:   0.000D+00 0.000D+00 0.000D+00 0.346D+00 0.654D+00
 Coeff:     -0.465D-02 0.423D-01 0.504D-01 0.433D+00 0.479D+00
 Gap=     0.240 Goal=   None    Shift=    0.000
 Gap=     0.093 Goal=   None    Shift=    0.000
[...]
   R10        2.62267   0.00003   0.00000   0.00010   0.00010   2.62278
   R11        2.45821  -0.00006   0.00000  -0.00016  -0.00016   2.45805
   R12        2.43088   0.00001   0.00000   0.00004   0.00004   2.43092
    A1        2.13467   0.00001   0.00000   0.00009   0.00009   2.13475
    A2        2.12178  -0.00000   0.00000   0.00001   0.00001   2.12179
    A3        2.02674  -0.00001   0.00000  -0.00009  -0.00009   2.02665
    A4        2.03520  -0.00004   0.00000  -0.00025  -0.00025   2.03495
    A5        2.12397   0.00002   0.00000   0.00016   0.00016   2.12413
    A6        2.12402   0.00002   0.00000   0.00009   0.00009   2.12411
    A7        2.13461   0.00002   0.00000   0.00015   0.00015   2.13477
    A8        2.12185  -0.00001   0.00000  -0.00007  -0.00007   2.12178
    A9        2.02672  -0.00001   0.00000  -0.00009  -0.00009   2.02664
   A10        2.10292   0.00002   0.00000   0.00010   0.00010   2.10301
   A11        2.06718  -0.00002   0.00000  -0.00012  -0.00012   2.06705
   A12        2.11309   0.00000   0.00000   0.00002   0.00002   2.11312
   A13        2.05610  -0.00003   0.00000  -0.00024  -0.00024   2.05586
   A14        2.11350   0.00002   0.00000   0.00017   0.00017   2.11367
   A15        2.11358   0.00001   0.00000   0.00007   0.00007   2.11366
   A16        2.10287   0.00002   0.00000   0.00015   0.00015   2.10303
   A17        2.06715  -0.00002   0.00000  -0.00011  -0.00011   2.06704
   A18        2.11316  -0.00000   0.00000  -0.00005  -0.00005   2.11312
    D1        0.00000  -0.00000   0.00000  -0.00000  -0.00000   0.00000
    D2        3.14159  -0.00000   0.00000  -0.00000   0.00000   3.14159
    D3        3.14159   0.00000   0.00000   0.00000   0.00000   3.14159
    D4        0.00000  -0.00000   0.00000  -0.00000  -0.00000   0.00000
    D5        0.00000  -0.00000   0.00000  -0.00000   0.00000   0.00000
    D6        3.14159   0.00000   0.00000   0.00000   0.00000   3.14159
    D7       -3.14159  -0.00000   0.00000  -0.00000  -0.00000   3.14159
    D8       -0.00000   0.00000   0.00000   0.00000   0.00000   0.00000
    D9       -0.00000   0.00000   0.00000   0.00000   0.00000   0.00000
   D10       -3.14159  -0.00000   0.00000  -0.00000  -0.00000  -3.14159
   D11        3.14159   0.00000   0.00000   0.00000   0.00000   3.14159
   D12        0.00000  -0.00000   0.00000  -0.00000  -0.00000   0.00000
   D13        0.00000  -0.00000   0.00000  -0.00000  -0.00000   0.00000
   D14       -3.14159  -0.00000   0.00000  -0.00000  -0.00000   3.14159
   D15        3.14159   0.00000   0.00000   0.00000   0.00000   3.14159
   D16       -0.00000   0.00000   0.00000   0.00000   0.00000   0.00000
   D17       -0.00000  -0.00000   0.00000   0.00000   0.00000   0.00000
   D18        3.14159  -0.00000   0.00000  -0.00000   0.00000   3.14159
   D19        3.14159   0.00000   0.00000   0.00000   0.00000   3.14159
   D20       -0.00000   0.00000   0.00000   0.00000   0.00000   0.00000
   D21       -0.00000   0.00000   0.00000   0.00000   0.00000   0.00000
   D22       -3.14159  -0.00000   0.00000  -0.00000  -0.00000   3.14159
   D23        3.14159   0.00000   0.00000   0.00000   0.00000   3.14159
   D24       -0.00000  -0.00000   0.00000   0.00000   0.00000   0.00000
         Item               Value     Threshold  Converged?
 Maximum Force            0.000058     0.000450     YES
 RMS     Force            0.000018     0.000300     YES
 Maximum Displacement     0.000245     0.001800     YES
 RMS     Displacement     0.000104     0.001200     YES
 Predicted change in Energy=-3.868009D-08
 Optimization completed.
    -- Stationary point found.
                           ----------------------------
                           !   Optimized Parameters   !
                           ! (Angstroms and Degrees)  !
 --------------------------                            --------------------------
 ! Name  Definition              Value          Derivative Info.                !
 --------------------------------------------------------------------------------
 ! R1    R(1,2)                  1.3787         -DE/DX =    0.0                 !
 ! R2    R(1,6)                  1.4466         -DE/DX =    0.0                 !
 ! R3    R(1,12)                 1.2891         -DE/DX =    0.0                 !
 ! R4    R(2,3)                  1.3786         -DE/DX =    0.0                 !
 ! R5    R(2,7)                  1.0844         -DE/DX =    0.0                 !
 ! R6    R(3,4)                  1.4466         -DE/DX =    0.0                 !
 ! R7    R(3,8)                  1.2891         -DE/DX =    0.0                 !
 ! R8    R(4,5)                  1.3879         -DE/DX =    0.0                 !
 ! R9    R(4,9)                  1.2864         -DE/DX =    0.0                 !
 ! R10   R(5,6)                  1.3879         -DE/DX =    0.0                 !
 ! R11   R(5,10)                 1.3008         -DE/DX =   -0.0001              !
 ! R12   R(6,11)                 1.2864         -DE/DX =    0.0                 !
 ! A1    A(2,1,6)              122.3074         -DE/DX =    0.0                 !
 ! A2    A(2,1,12)             121.569          -DE/DX =    0.0                 !
 ! A3    A(6,1,12)             116.1236         -DE/DX =    0.0                 !
 ! A4    A(1,2,3)              116.6083         -DE/DX =    0.0                 !
 ! A5    A(1,2,7)              121.6945         -DE/DX =    0.0                 !
 ! A6    A(3,2,7)              121.6973         -DE/DX =    0.0                 !
 ! A7    A(2,3,4)              122.3044         -DE/DX =    0.0                 !
 ! A8    A(2,3,8)              121.573          -DE/DX =    0.0                 !
 ! A9    A(4,3,8)              116.1226         -DE/DX =    0.0                 !
 ! A10   A(3,4,5)              120.4882         -DE/DX =    0.0                 !
 ! A11   A(3,4,9)              118.4404         -DE/DX =    0.0                 !
 ! A12   A(5,4,9)              121.0714         -DE/DX =    0.0                 !
 ! A13   A(4,5,6)              117.8059         -DE/DX =    0.0                 !
 ! A14   A(4,5,10)             121.0946         -DE/DX =    0.0                 !
 ! A15   A(6,5,10)             121.0995         -DE/DX =    0.0                 !
 ! A16   A(1,6,5)              120.4858         -DE/DX =    0.0                 !
 ! A17   A(1,6,11)             118.4389         -DE/DX =    0.0                 !
 ! A18   A(5,6,11)             121.0753         -DE/DX =    0.0                 !
 ! D1    D(6,1,2,3)              0.0            -DE/DX =    0.0                 !
 ! D2    D(6,1,2,7)            180.0            -DE/DX =    0.0                 !
 ! D3    D(12,1,2,3)           180.0            -DE/DX =    0.0                 !
 ! D4    D(12,1,2,7)             0.0            -DE/DX =    0.0                 !
 ! D5    D(2,1,6,5)              0.0            -DE/DX =    0.0                 !
 ! D6    D(2,1,6,11)           180.0            -DE/DX =    0.0                 !
 ! D7    D(12,1,6,5)           180.0            -DE/DX =    0.0                 !
 ! D8    D(12,1,6,11)            0.0            -DE/DX =    0.0                 !
 ! D9    D(1,2,3,4)              0.0            -DE/DX =    0.0                 !
 ! D10   D(1,2,3,8)           -180.0            -DE/DX =    0.0                 !
 ! D11   D(7,2,3,4)            180.0            -DE/DX =    0.0                 !
 ! D12   D(7,2,3,8)              0.0            -DE/DX =    0.0                 !
 ! D13   D(2,3,4,5)              0.0            -DE/DX =    0.0                 !
 ! D14   D(2,3,4,9)            180.0            -DE/DX =    0.0                 !
 ! D15   D(8,3,4,5)            180.0            -DE/DX =    0.0                 !
 ! D16   D(8,3,4,9)              0.0            -DE/DX =    0.0                 !
 ! D17   D(3,4,5,6)              0.0            -DE/DX =    0.0                 !
 ! D18   D(3,4,5,10)           180.0            -DE/DX =    0.0                 !
 ! D19   D(9,4,5,6)            180.0            -DE/DX =    0.0                 !
 ! D20   D(9,4,5,10)             0.0            -DE/DX =    0.0                 !
 ! D21   D(4,5,6,1)              0.0            -DE/DX =    0.0                 !
 ! D22   D(4,5,6,11)           180.0            -DE/DX =    0.0                 !
 ! D23   D(10,5,6,1)           180.0            -DE/DX =    0.0                 !
 ! D24   D(10,5,6,11)            0.0            -DE/DX =    0.0                 !
 --------------------------------------------------------------------------------
 GradGradGradGradGradGradGradGradGradGradGradGradGradGradGradGradGradGrad

 Leave Link  103 at Thu Jan 30 14:42:12 2025, MaxMem=   104857600 cpu:               0.0 elap:               0.0
 (Enter /sw/cluster/pub/apps//g16/l9999.exe)

 ----------------------------------------------------------------------

 Electric dipole moment (input orientation):
 (Debye = 10**-18 statcoulomb cm , SI units = C m)
                  (au)            (Debye)         (10**-30 SI)
   Tot        0.495954D+00      0.126059D+01      0.420487D+01
   x          0.429488D+00      0.109165D+01      0.364135D+01
   y         -0.248013D+00     -0.630387D+00     -0.210274D+01
   z          0.000000D+00      0.000000D+00      0.000000D+00

 Dipole polarizability, Alpha (input orientation).
 (esu units = cm**3 , SI units = C**2 m**2 J**-1)
 Alpha(0;0):
               (au)            (10**-24 esu)      (10**-40 SI)
   iso        0.674386D+02      0.999337D+01      0.111191D+02
   aniso      0.552482D+02      0.818693D+01      0.910919D+01
   xx         0.801352D+02      0.118748D+02      0.132125D+02
   yx         0.840313D+01      0.124522D+01      0.138549D+01
   yy         0.898294D+02      0.133113D+02      0.148109D+02
   zx         0.000000D+00      0.000000D+00      0.000000D+00
   zy         0.000000D+00      0.000000D+00      0.000000D+00
   zz         0.323511D+02      0.479394D+01      0.533398D+01

 ----------------------------------------------------------------------

 Dipole orientation:
     6          1.10856378          1.91971391          1.35799270
     6          0.00010102          0.00017515          2.72707194
     6         -1.10846753         -1.91954709          1.35846074
     6         -1.12312010         -1.94492132         -1.37506597
     6         -0.00009505         -0.00016486         -2.72989558
     6          1.12302143          1.94475016         -1.37552107
     1          0.00022633          0.00039240          4.77624902
     9         -2.19644636         -3.80361351          2.45444152
     9         -2.19816178         -3.80658452         -2.50977224
     9         -0.00026041         -0.00045133         -5.18810235
     9          2.19800913          3.80631981         -2.51048857
     9          2.19660583          3.80389012          2.45369556

 Electric dipole moment (dipole orientation):
 (Debye = 10**-18 statcoulomb cm , SI units = C m)
                  (au)            (Debye)         (10**-30 SI)
   Tot        0.495954D+00      0.126059D+01      0.420487D+01
   x          0.000000D+00      0.000000D+00      0.000000D+00
   y          0.000000D+00      0.000000D+00      0.000000D+00
   z          0.495954D+00      0.126059D+01      0.420487D+01

 Dipole polarizability, Alpha (dipole orientation).
 (esu units = cm**3 , SI units = C**2 m**2 J**-1)
 Alpha(0;0):
               (au)            (10**-24 esu)      (10**-40 SI)
   iso        0.674386D+02      0.999337D+01      0.111191D+02
   aniso      0.552482D+02      0.818693D+01      0.910919D+01
   xx         0.479387D+02      0.710378D+01      0.790402D+01
   yx         0.269932D+02      0.399998D+01      0.445058D+01
   yy         0.790956D+02      0.117208D+02      0.130411D+02
   zx         0.112028D-02      0.166009D-03      0.184710D-03
   zy         0.194355D-02      0.288004D-03      0.320447D-03
   zz         0.752814D+02      0.111556D+02      0.124122D+02

 ----------------------------------------------------------------------
 1\1\GINC-N11\Freq\UPBE1PBE\6-311++G(d,p)\C6H1F5(1+,2)\UNKNOWN\30-Jan-2
 025\0\\#P Geom=AllCheck Guess=TCheck SCRF=Check GenChk UPBE1PBE/6-311+
 +G(d,p) Freq\\PFB SP\\1,2\C,1.2089384454,0.6565068122,-0.0000000078\C,
 1.2497574783,-0.7215652003,-0.0000000036\C,0.0359504761,-1.3752664685,
 -0.000000018\C,-1.2244653023,-0.6653279381,-0.0000000103\C,-1.25104828
 93,0.7223178665,-0.0000000072\C,-0.0360669462,1.3931179984,-0.00000001
 11\H,2.1888767219,-1.2637186013,0.0000000142\F,-0.0375405469,-2.662298
 0084,0.0000000076\F,-2.3133416938,-1.3502033426,0.0000000092\F,-2.3776
 300345,1.3726750648,0.0000000149\F,0.0126834996,2.6785616964,0.0000000
 046\F,2.2868207149,1.3636169458,0.0000000075\\Version=ES64L-G16RevA.03
 \HF=-727.5330524\S2=0.767253\S2-1=0.\S2A=0.750167\RMSD=1.605e-09\RMSF=
 4.115e-05\ZeroPoint=0.0598277\Thermal=0.068663\Dipole=0.8851837,-0.511
 1036,0.\DipoleDeriv=1.3636388,0.8432112,0.,0.5366952,0.9049901,0.,0.,0
 .,0.258981,-0.3068889,-0.2612344,0.,-0.2611454,-0.60878,0.,0.,0.,-0.11
 664,0.4215973,-0.0065591,0.,0.2997467,1.8462943,0.,0.,0.,0.2589037,1.1
 822666,0.9264318,0.,0.889529,0.9392179,0.,0.,0.,0.2348789,0.8375426,-1
 .065517,0.,-1.0658149,-0.3933409,0.,0.,0.,0.1238028,0.2133072,0.330150
 1,0.,0.3674163,1.9077332,0.,0.,0.,0.2347945,0.2129814,-0.049391,0.,-0.
 0493734,0.1559589,0.,0.,0.,0.2035817,-0.1228467,-0.0235986,0.,-0.07543
 26,-1.2386492,0.,0.,0.,-0.0496634,-0.931281,-0.602939,0.,-0.5073183,-0
 .4672229,0.,0.,0.,-0.0275477,-0.8509477,0.4721359,0.,0.4722373,-0.3055
 346,0.,0.,0.,-0.0438732,-0.1024675,-0.028845,0.,-0.1245715,-1.295969,0
 .,0.,0.,-0.0275735,-0.916902,-0.5338448,0.,-0.4819683,-0.4446977,0.,0.
 ,0.,-0.0496449\Polar=80.1352296,8.4031344,89.8293633,0.,0.,32.3511282\
 Quadrupole=1.8739408,0.9150324,-2.7889732,-0.8294467,0.,0.\PG=C01 [X(C
 6H1F5)]\NImag=0\\0.68447346,0.07375113,0.71939307,0.,0.,0.12980790,-0.
 12789421,0.09704347,0.,0.74956727,0.00063345,-0.31172346,0.,-0.0697216
 3,0.66895236,0.,0.,-0.04461612,0.,0.,0.08988305,0.04354297,-0.11962300
 ,0.,-0.30815200,-0.00707290,0.,0.64691978,-0.04344930,-0.05064914,0.,-
 0.10341602,-0.13156575,0.,0.05204850,0.75711426,0.,0.,-0.01912434,0.,0
 .,-0.04461267,0.,0.,0.12980569,-0.03083778,0.02293704,0.,-0.03525969,-
 0.00985357,0.,-0.21326429,0.09578616,0.,0.71468190,0.00170990,0.010049
 94,0.,-0.01887229,-0.00368426,0.,0.08075861,-0.12428094,0.,0.05654680,
 0.72454309,0.,0.,0.01530641,0.,0.,-0.00705457,0.,0.,-0.04611074,0.,0.,
 0.10787764,-0.02505141,-0.02477225,0.,0.01636279,0.02216637,0.,-0.0134
 8810,0.02637780,0.,-0.08636597,0.08889141,0.,0.74972582,0.01975622,-0.
 01260485,0.,0.02218103,0.04197568,0.,-0.01809219,-0.02412017,0.,-0.003
 34219,-0.28814489,0.,-0.09102791,0.64442572,0.,0.,-0.01416618,0.,0.,0.
 01768303,0.,0.,-0.01416564,0.,0.,-0.03312478,0.,0.,0.08985950,-0.22296
 138,0.07514528,0.,0.00090416,0.00203168,0.,-0.01093023,0.01324913,0.,0
 .02573657,-0.09340069,0.,-0.27486082,-0.01998235,0.,0.67319323,0.09018
 375,-0.11455800,0.,0.01098551,-0.03980023,0.,0.03445751,-0.00993296,0.
 ,-0.05095620,-0.05767486,0.,-0.11215614,-0.09979078,0.,0.03260768,0.76
 613889,0.,0.,-0.04610970,0.,0.,-0.00705806,0.,0.,0.01531117,0.,0.,-0.0
 2494465,0.,0.,-0.03312250,0.,0.,0.10788078,0.00790195,-0.00090929,0.,-
 0.27966146,0.12823988,0.,-0.01652383,0.01331619,0.,-0.00140883,-0.0039
 7494,0.,0.00010026,0.00104004,0.,-0.00058569,-0.00151572,0.,0.28786049
 ,0.02741997,-0.00935972,0.,0.12823891,-0.13156043,0.,-0.01501072,0.015
 06609,0.,-0.00198952,-0.00375776,0.,0.00104074,0.00130368,0.,-0.003500
 98,-0.00457818,0.,-0.13709720,0.12952914,0.,0.,0.00311852,0.,0.,-0.029
 78990,0.,0.,0.00311968,0.,0.,0.00609701,0.,0.,-0.00283746,0.,0.,0.0060
 9442,0.,0.,0.02245922,-0.00886963,0.00825532,0.,0.00409489,-0.05392018
 ,0.,-0.07707564,-0.01958735,0.,0.00155721,0.03541719,0.,-0.00361154,0.
 00354160,0.,-0.00173844,-0.00340396,0.,0.00242857,0.00178544,0.,0.0761
 4148,-0.00071139,0.02479304,0.,-0.02455264,-0.06732904,0.,-0.00241180,
 -0.43772659,0.,-0.00201593,-0.06765332,0.,0.00943724,0.01912372,0.,-0.
 01020956,0.00050740,0.,0.00125490,-0.00004809,0.,0.02500687,0.52885788
 ,0.,0.,0.00911293,0.,0.,0.01034433,0.,0.,-0.04234469,0.,0.,0.00707950,
 0.,0.,0.00385696,0.,0.,-0.00254973,0.,0.,-0.00454868,0.,0.,0.02223064,
 0.00984809,-0.01024566,0.,0.00452115,0.01930093,0.,-0.06433119,-0.0386
 6189,0.,-0.34694812,-0.15744789,0.,-0.03844258,-0.03886654,0.,0.013789
 20,0.01849016,0.,-0.00055653,-0.00150476,0.,0.00767735,0.00772290,0.,0
 .40504476,0.00533935,-0.00881767,0.,0.00885786,0.00748748,0.,-0.004814
 50,0.00221458,0.,-0.17008677,-0.17708006,0.,-0.07161486,-0.04751998,0.
 ,0.01790762,0.00621342,0.,0.00073777,0.00068293,0.,0.00341281,0.013165
 84,0.,0.21128983,0.20359913,0.,0.,-0.00313090,0.,0.,0.00403699,0.,0.,0
 .00455264,0.,0.,-0.03683767,0.,0.,0.00870781,0.,0.,0.00967492,0.,0.,0.
 00022293,0.,0.,-0.00209729,0.,0.,0.02063623,0.00349698,-0.00336848,0.,
 -0.00354816,0.00094720,0.,0.00223103,-0.00612350,0.,-0.02608449,0.0106
 7788,0.,-0.33477349,0.15668725,0.,-0.06001767,0.03629481,0.,0.00048626
 ,-0.00026917,0.,-0.00010303,0.00162966,0.,0.01331594,0.00411251,0.,0.4
 0205640,-0.00540726,-0.00322625,0.,0.00093335,-0.00247713,0.,-0.004076
 20,-0.00198271,0.,0.05588980,-0.03291926,0.,0.15669997,-0.15377798,0.,
 -0.00892647,0.00103232,0.,-0.00026938,0.00017489,0.,0.00221034,-0.0035
 5646,0.,-0.00121995,0.00695993,0.,-0.19564699,0.17610314,0.,0.,0.00759
 311,0.,0.,-0.00319754,0.,0.,0.00758949,0.,0.,0.00458416,0.,0.,-0.03525
 622,0.,0.,0.00458598,0.,0.,0.00038894,0.,0.,-0.00017071,0.,0.,-0.00442
 216,0.,0.,0.02290158,0.00440802,0.03486958,0.,-0.00544805,0.00309869,0
 .,-0.00202089,-0.00151705,0.,-0.00765505,0.00552768,0.,0.00259301,-0.0
 4792560,0.,-0.07772594,-0.01466068,0.,0.00070495,0.00146618,0.,0.00056
 553,0.00051262,0.,-0.00066233,-0.00344810,0.,0.00729317,0.00063960,0.,
 0.07097829,0.00103598,-0.06654691,0.,0.01355039,0.01746361,0.,-0.01709
 501,0.00305008,0.,0.00610387,0.02768137,0.,-0.01517977,-0.08856404,0.,
 -0.00203316,-0.44627639,0.,-0.00077661,-0.00057872,0.,0.00126887,-0.00
 349475,0.,-0.00791945,-0.00722650,0.,-0.00469979,0.01297490,0.,0.01843
 145,0.53764428,0.,0.,0.00455031,0.,0.,0.00403647,0.,0.,-0.00313123,0.,
 0.,0.00967716,0.,0.,0.00870691,0.,0.,-0.03684491,0.,0.,0.00022366,0.,0
 .,0.00061131,0.,0.,-0.00195518,0.,0.,-0.00442497,0.,0.,0.02064786,-0.3
 3805705,-0.15308313,0.,-0.01548670,-0.03584991,0.,0.01309238,0.0119773
 5,0.,0.00584855,-0.00583366,0.,0.00781204,0.01603066,0.,-0.06480299,-0
 .04032672,0.,-0.00074613,-0.00057889,0.,-0.00106675,-0.00566288,0.,-0.
 00325574,-0.00169353,0.,-0.00435293,-0.00082682,0.,0.00696927,0.007313
 23,0.,0.39404603,-0.17026180,-0.17675004,0.,-0.06522795,-0.04773885,0.
 ,0.02093172,0.00281326,0.,0.00098051,-0.00707904,0.,0.01013740,0.00769
 389,0.,-0.00288819,-0.00128064,0.,-0.00004563,0.00312617,0.,-0.0039869
 6,-0.00663963,0.,-0.00093767,0.00032090,0.,-0.00024137,0.00069462,0.,0
 .00300564,0.01387307,0.,0.20853429,0.21096628,0.,0.,-0.04234194,0.,0.,
 0.01034498,0.,0.,0.00911063,0.,0.,-0.00254947,0.,0.,0.00385856,0.,0.,0
 .00708228,0.,0.,-0.00454834,0.,0.,-0.00152458,0.,0.,0.00061167,0.,0.,-
 0.00017166,0.,0.,-0.00209739,0.,0.,0.02222527\\0.00007293,-0.00004577,
 0.,-0.00009117,0.00003959,0.,0.00009170,-0.00003768,0.,-0.00007984,0.0
 0002098,0.,0.00011481,-0.00004827,0.,-0.00007031,0.00004776,0.,0.00001
 077,-0.00000495,0.,0.00000239,0.00000645,0.,0.00001048,0.00001766,0.,-
 0.00005132,0.00002685,0.,-0.00000565,-0.00001225,0.,-0.00000479,-0.000
 01039,0.\\\@


 AS FAR AS THE LAWS OF MATHEMATICS REFER TO REALITY,
 THEY ARE NOT CERTAIN; AND AS FAR AS THEY ARE CERTAIN,
 THEY DO NOT REFER TO REALITY.

                                         -- ALBERT EINSTEIN
 Job cpu time:       0 days  0 hours  9 minutes  9.4 seconds.
 Elapsed time:       0 days  0 hours  9 minutes 10.3 seconds.
 File lengths (MBytes):  RWF=    177 Int=      0 D2E=      0 Chk=      9 Scr=      1
 Normal termination of Gaussian 16 at Thu Jan 30 14:42:12 2025.
