 Entering Gaussian System, Link 0=g16
 Initial command:
 /sw/cluster/pub/apps//g16/l1.exe "/data/natrosa/28095/Gau-965666.inp" -scrdir="/data/natrosa/28095/"
 Entering Link 1 = /sw/cluster/pub/apps//g16/l1.exe PID=    965667.
  
 Copyright (c) 1988,1990,1992,1993,1995,1998,2003,2009,2016,
            Gaussian, Inc.  All Rights Reserved.
  
 This is part of the Gaussian(R) 16 program.  It is based on
 the Gaussian(R) 09 system (copyright 2009, Gaussian, Inc.),
 the Gaussian(R) 03 system (copyright 2003, Gaussian, Inc.),
 the Gaussian(R) 98 system (copyright 1998, Gaussian, Inc.),
 the Gaussian(R) 94 system (copyright 1995, Gaussian, Inc.),
 the Gaussian 92(TM) system (copyright 1992, Gaussian, Inc.),
 the Gaussian 90(TM) system (copyright 1990, Gaussian, Inc.),
 the Gaussian 88(TM) system (copyright 1988, Gaussian, Inc.),
 the Gaussian 86(TM) system (copyright 1986, Carnegie Mellon
 University), and the Gaussian 82(TM) system (copyright 1983,
 Carnegie Mellon University). Gaussian is a federally registered
 trademark of Gaussian, Inc.
  
 This software contains proprietary and confidential information,
 including trade secrets, belonging to Gaussian, Inc.
  
 This software is provided under written license and may be
 used, copied, transmitted, or stored only in accord with that
 written license.
  
 The following legend is applicable only to US Government
 contracts under FAR:
  
                    RESTRICTED RIGHTS LEGEND
  
 Use, reproduction and disclosure by the US Government is
 subject to restrictions as set forth in subparagraphs (a)
 and (c) of the Commercial Computer Software - Restricted
 Rights clause in FAR 52.227-19.
  
 Gaussian, Inc.
 340 Quinnipiac St., Bldg. 40, Wallingford CT 06492
  
  
 ---------------------------------------------------------------
 Warning -- This program may not be used in any manner that
 competes with the business of Gaussian, Inc. or will provide
 assistance to any competitor of Gaussian, Inc.  The licensee
 of this program is prohibited from giving any competitor of
 Gaussian, Inc. access to this program.  By using this program,
 the user acknowledges that Gaussian, Inc. is engaged in the
 business of creating and licensing software in the field of
 computational chemistry and represents and warrants to the
 licensee that it is not a competitor of Gaussian, Inc. and that
 it will not use this program in any manner prohibited above.
 ---------------------------------------------------------------
  

 Cite this work as:
 Gaussian 16, Revision A.03,
 M. J. Frisch, G. W. Trucks, H. B. Schlegel, G. E. Scuseria, 
 M. A. Robb, J. R. Cheeseman, G. Scalmani, V. Barone, 
 G. A. Petersson, H. Nakatsuji, X. Li, M. Caricato, A. V. Marenich, 
 J. Bloino, B. G. Janesko, R. Gomperts, B. Mennucci, H. P. Hratchian, 
 J. V. Ortiz, A. F. Izmaylov, J. L. Sonnenberg, D. Williams-Young, 
 F. Ding, F. Lipparini, F. Egidi, J. Goings, B. Peng, A. Petrone, 
 T. Henderson, D. Ranasinghe, V. G. Zakrzewski, J. Gao, N. Rega, 
 G. Zheng, W. Liang, M. Hada, M. Ehara, K. Toyota, R. Fukuda, 
 J. Hasegawa, M. Ishida, T. Nakajima, Y. Honda, O. Kitao, H. Nakai, 
 T. Vreven, K. Throssell, J. A. Montgomery, Jr., J. E. Peralta, 
 F. Ogliaro, M. J. Bearpark, J. J. Heyd, E. N. Brothers, K. N. Kudin, 
 V. N. Staroverov, T. A. Keith, R. Kobayashi, J. Normand, 
 K. Raghavachari, A. P. Rendell, J. C. Burant, S. S. Iyengar, 
 J. Tomasi, M. Cossi, J. M. Millam, M. Klene, C. Adamo, R. Cammi, 
 J. W. Ochterski, R. L. Martin, K. Morokuma, O. Farkas, 
 J. B. Foresman, and D. J. Fox, Gaussian, Inc., Wallingford CT, 2016.
 
 ******************************************
 Gaussian 16:  ES64L-G16RevA.03 25-Dec-2016
                21-Jan-2025 
 ******************************************
 %chk=PFB.chk
 -----------------------------------------------
 #p PBE1PBE/6-311++G(d,p) density=current nosymm
 -----------------------------------------------
 1/30=1,38=1,172=1/1;
 2/12=2,15=1,17=6,18=5,40=1/2;
 3/5=4,6=6,7=1111,11=2,25=1,30=1,74=-13/1,2,3;
 4//1;
 5/5=2,38=5/2;
 6/7=2,8=2,9=2,10=2,22=-1,28=1/1;
 99/5=1,9=1/99;
 Leave Link    1 at Tue Jan 21 13:10:56 2025, MaxMem=           0 cpu:               0.0 elap:               0.0
 (Enter /sw/cluster/pub/apps//g16/l101.exe)
 ------
 PFB SP
 ------
 Symbolic Z-matrix:
 Charge =  0 Multiplicity = 1
 C                     1.19153   0.68536   0. 
 C                     1.20712  -0.69698   0. 
 C                     0.00229  -1.37476  0. 
 C                    -1.20604  -0.69433   0. 
 C                    -1.20157   0.69381   0. 
 C                    -0.00178   1.39191  0. 
 H                     2.1448   -1.23807   0. 
 F                    -0.01435  -2.70478   0. 
 F                    -2.35775  -1.35084   0. 
 F                    -2.34781   1.35502  0. 
 F                    -0.00872   2.7176    0. 
 F                     2.33522   1.36446   0. 
 
 ITRead=  0  0  0  0  0  0  0  0  0  0  0  0
 MicOpt= -1 -1 -1 -1 -1 -1 -1 -1 -1 -1 -1 -1
 NAtoms=     12 NQM=       12 NQMF=       0 NMMI=      0 NMMIF=      0
                NMic=       0 NMicF=      0.
                    Isotopes and Nuclear Properties:
 (Nuclear quadrupole moments (NQMom) in fm**2, nuclear magnetic moments (NMagM)
  in nuclear magnetons)

  Atom         1           2           3           4           5           6           7           8           9          10
 IAtWgt=          12          12          12          12          12          12           1          19          19          19
 AtmWgt=  12.0000000  12.0000000  12.0000000  12.0000000  12.0000000  12.0000000   1.0078250  18.9984032  18.9984032  18.9984032
 NucSpn=           0           0           0           0           0           0           1           1           1           1
 AtZEff=  -0.0000000  -0.0000000  -0.0000000  -0.0000000  -0.0000000  -0.0000000  -0.0000000  -0.0000000  -0.0000000  -0.0000000
 NQMom=    0.0000000   0.0000000   0.0000000   0.0000000   0.0000000   0.0000000   0.0000000   0.0000000   0.0000000   0.0000000
 NMagM=    0.0000000   0.0000000   0.0000000   0.0000000   0.0000000   0.0000000   2.7928460   2.6288670   2.6288670   2.6288670
 AtZNuc=   6.0000000   6.0000000   6.0000000   6.0000000   6.0000000   6.0000000   1.0000000   9.0000000   9.0000000   9.0000000

  Atom        11          12
 IAtWgt=          19          19
 AtmWgt=  18.9984032  18.9984032
 NucSpn=           1           1
 AtZEff=  -0.0000000  -0.0000000
 NQMom=    0.0000000   0.0000000
 NMagM=    2.6288670   2.6288670
 AtZNuc=   9.0000000   9.0000000
 Leave Link  101 at Tue Jan 21 13:10:56 2025, MaxMem=   104857600 cpu:               0.0 elap:               0.0
 (Enter /sw/cluster/pub/apps//g16/l202.exe)
                          Input orientation:                          
 ---------------------------------------------------------------------
 Center     Atomic      Atomic             Coordinates (Angstroms)
 Number     Number       Type             X           Y           Z
 ---------------------------------------------------------------------
      1          6           0        1.191533    0.685362    0.000000
      2          6           0        1.207116   -0.696977    0.000000
      3          6           0        0.002291   -1.374757   -0.000000
      4          6           0       -1.206045   -0.694328    0.000000
      5          6           0       -1.201570    0.693813    0.000000
      6          6           0       -0.001780    1.391908   -0.000000
      7          1           0        2.144796   -1.238075    0.000000
      8          9           0       -0.014349   -2.704782    0.000000
      9          9           0       -2.357753   -1.350838    0.000000
     10          9           0       -2.347807    1.355023   -0.000000
     11          9           0       -0.008716    2.717605    0.000000
     12          9           0        2.335219    1.364462    0.000000
 ---------------------------------------------------------------------
                    Distance matrix (angstroms):
                    1          2          3          4          5
     1  C    0.000000
     2  C    1.382426   0.000000
     3  C    2.378736   1.382386   0.000000
     4  C    2.766211   2.413163   1.386743   0.000000
     5  C    2.393118   2.781379   2.393379   1.388149   0.000000
     6  C    1.386796   2.413476   2.766667   2.408866   1.388104
     7  H    2.146699   1.082603   2.146860   3.394671   3.863982
     8  F    3.598226   2.350162   1.330130   2.337106   3.599992
     9  F    4.091887   3.624338   2.360165   1.325683   2.348905
    10  F    3.602135   4.104654   3.602035   2.345946   1.323276
    11  F    2.360214   3.624585   4.092376   3.615921   2.349177
    12  F    1.330111   2.349925   3.598038   4.096238   3.599812
                    6          7          8          9         10
     6  C    0.000000
     7  H    3.394789   0.000000
     8  F    4.096709   2.610199   0.000000
     9  F    3.615696   4.503960   2.706420   0.000000
    10  F    2.346317   5.187257   4.682632   2.705879   0.000000
    11  F    1.325715   4.503889   5.422390   4.697893   2.707023
    12  F    2.337160   2.609495   4.698853   5.421885   4.683036
                   11         12
    11  F    0.000000
    12  F    2.706479   0.000000
 Symmetry turned off by external request.
 Stoichiometry    C6HF5
 Framework group  CS[SG(C6HF5)]
 Deg. of freedom    21
 Full point group                 CS      NOp   2
 Rotational constants (GHZ):           1.4886064           1.0352938           0.6106204
 Leave Link  202 at Tue Jan 21 13:10:56 2025, MaxMem=   104857600 cpu:               0.0 elap:               0.0
 (Enter /sw/cluster/pub/apps//g16/l301.exe)
 Standard basis: 6-311++G(d,p) (5D, 7F)
 Ernie: Thresh=  0.10000D-02 Tol=  0.10000D-05 Strict=F.
   249 basis functions,   405 primitive gaussians,   260 cartesian basis functions
    41 alpha electrons       41 beta electrons
       nuclear repulsion energy       625.1356942200 Hartrees.
 IExCor= 1009 DFT=T Ex+Corr=PBE1PBE ExCW=0 ScaHFX=  0.250000
 ScaDFX=  0.750000  0.750000  1.000000  1.000000 ScalE2=  1.000000  1.000000
 IRadAn=      5 IRanWt=     -1 IRanGd=            0 ICorTp=0 IEmpDi=  4
 NAtoms=   12 NActive=   12 NUniq=   12 SFac= 1.00D+00 NAtFMM=   60 NAOKFM=F Big=F
 Integral buffers will be    131072 words long.
 Raffenetti 2 integral format.
 Two-electron integral symmetry is turned off.
 Leave Link  301 at Tue Jan 21 13:10:56 2025, MaxMem=   104857600 cpu:               0.0 elap:               0.0
 (Enter /sw/cluster/pub/apps//g16/l302.exe)
 NPDir=0 NMtPBC=     1 NCelOv=     1 NCel=       1 NClECP=     1 NCelD=      1
         NCelK=      1 NCelE2=     1 NClLst=     1 CellRange=     0.0.
 One-electron integrals computed using PRISM.
 NBasis=   249 RedAO= T EigKep=  1.81D-06  NBF=   249
 NBsUse=   249 1.00D-06 EigRej= -1.00D+00 NBFU=   249
 Precomputing XC quadrature grid using
 IXCGrd= 4 IRadAn=           5 IRanWt=          -1 IRanGd=           0 AccXCQ= 0.00D+00.
 Generated NRdTot=       0 NPtTot=           0 NUsed=           0 NTot=          32
 NSgBfM=   260   260   260   260   260 MxSgAt=    12 MxSgA2=    12.
 Leave Link  302 at Tue Jan 21 13:10:56 2025, MaxMem=   104857600 cpu:               0.1 elap:               0.1
 (Enter /sw/cluster/pub/apps//g16/l303.exe)
 DipDrv:  MaxL=1.
 Leave Link  303 at Tue Jan 21 13:10:56 2025, MaxMem=   104857600 cpu:               0.0 elap:               0.0
 (Enter /sw/cluster/pub/apps//g16/l401.exe)
 ExpMin= 3.60D-02 ExpMax= 1.14D+04 ExpMxC= 1.72D+03 IAcc=3 IRadAn=         5 AccDes= 0.00D+00
 Harris functional with IExCor= 1009 and IRadAn=       5 diagonalized for initial guess.
 HarFok:  IExCor= 1009 AccDes= 0.00D+00 IRadAn=         5 IDoV= 1 UseB2=F ITyADJ=14
 ICtDFT=  3500011 ScaDFX=  1.000000  1.000000  1.000000  1.000000
 FoFCou: FMM=F IPFlag=           0 FMFlag=      100000 FMFlg1=           0
         NFxFlg=           0 DoJE=T BraDBF=F KetDBF=T FulRan=T
         wScrn=  0.000000 ICntrl=       500 IOpCl=  0 I1Cent=   200000004 NGrid=           0
         NMat0=    1 NMatS0=      1 NMatT0=    0 NMatD0=    1 NMtDS0=    0 NMtDT0=    0
 Symmetry not used in FoFCou.
 Harris En= -727.896821199217    
 JPrj=0 DoOrth=F DoCkMO=F.
 Leave Link  401 at Tue Jan 21 13:10:57 2025, MaxMem=   104857600 cpu:               1.4 elap:               1.4
 (Enter /sw/cluster/pub/apps//g16/l502.exe)
 Two-electron integral symmetry not used.
 Closed shell SCF:
 Using DIIS extrapolation, IDIIS=  1040.
 NGot=   104857600 LenX=   104719020 LenY=   104650979
 Requested convergence on RMS density matrix=1.00D-08 within 128 cycles.
 Requested convergence on MAX density matrix=1.00D-06.
 Requested convergence on             energy=1.00D-06.
 No special actions if energy rises.
 Fock matrices will be formed incrementally for  20 cycles.

 Cycle   1  Pass 1  IDiag  1:
 FoFJK:  IHMeth= 1 ICntrl=       0 DoSepK=F KAlg= 0 I1Cent=           0 FoldK=F
 IRaf= 920000000 NMat=       1 IRICut=       1 DoRegI=T DoRafI=F ISym2E= 0 IDoP0=0 IntGTp=1.
 FoFCou: FMM=F IPFlag=           0 FMFlag=      100000 FMFlg1=           0
         NFxFlg=           0 DoJE=F BraDBF=F KetDBF=F FulRan=T
         wScrn=  0.000000 ICntrl=         0 IOpCl=  0 I1Cent=           0 NGrid=           0
         NMat0=    1 NMatS0=      1 NMatT0=    0 NMatD0=    1 NMtDS0=    0 NMtDT0=    0
 Symmetry not used in FoFCou.
 E= -727.799258004383    
 DIIS: error= 1.87D-02 at cycle   1 NSaved=   1.
 NSaved= 1 IEnMin= 1 EnMin= -727.799258004383     IErMin= 1 ErrMin= 1.87D-02
 ErrMax= 1.87D-02  0.00D+00 EMaxC= 1.00D-01 BMatC= 1.27D-01 BMatP= 1.27D-01
 IDIUse=3 WtCom= 8.13D-01 WtEn= 1.87D-01
 Coeff-Com:  0.100D+01
 Coeff-En:   0.100D+01
 Coeff:      0.100D+01
 Gap=     0.263 Goal=   None    Shift=    0.000
 GapD=    0.263 DampG=1.000 DampE=0.500 DampFc=0.5000 IDamp=-1.
 Damping current iteration by 5.00D-01
 RMSDP=1.60D-02 MaxDP=5.88D-01              OVMax= 2.27D-01

 Cycle   2  Pass 1  IDiag  1:
 RMSU=  7.64D-03    CP:  1.04D+00
 E= -727.836606353379     Delta-E=       -0.037348348996 Rises=F Damp=T
 DIIS: error= 5.87D-03 at cycle   2 NSaved=   2.
 NSaved= 2 IEnMin= 2 EnMin= -727.836606353379     IErMin= 2 ErrMin= 5.87D-03
 ErrMax= 5.87D-03  0.00D+00 EMaxC= 1.00D-01 BMatC= 1.37D-02 BMatP= 1.27D-01
 IDIUse=3 WtCom= 9.41D-01 WtEn= 5.87D-02
 Coeff-Com: -0.900D-01 0.109D+01
 Coeff-En:   0.296D-01 0.970D+00
 Coeff:     -0.830D-01 0.108D+01
 Gap=     0.288 Goal=   None    Shift=    0.000
 RMSDP=4.45D-03 MaxDP=1.94D-01 DE=-3.73D-02 OVMax= 1.62D-01

 Cycle   3  Pass 1  IDiag  1:
 RMSU=  2.65D-03    CP:  1.07D+00  1.43D+00
 E= -727.869346849186     Delta-E=       -0.032740495807 Rises=F Damp=F
 DIIS: error= 1.21D-02 at cycle   3 NSaved=   3.
 NSaved= 3 IEnMin= 3 EnMin= -727.869346849186     IErMin= 2 ErrMin= 5.87D-03
 ErrMax= 1.21D-02  0.00D+00 EMaxC= 1.00D-01 BMatC= 1.18D-02 BMatP= 1.37D-02
 IDIUse=3 WtCom= 8.79D-01 WtEn= 1.21D-01
 Coeff-Com: -0.152D+00 0.583D+00 0.569D+00
 Coeff-En:   0.000D+00 0.000D+00 0.100D+01
 Coeff:     -0.134D+00 0.513D+00 0.621D+00
 Gap=     0.245 Goal=   None    Shift=    0.000
 RMSDP=1.35D-03 MaxDP=5.30D-02 DE=-3.27D-02 OVMax= 7.60D-02

 Cycle   4  Pass 1  IDiag  1:
 RMSU=  7.63D-04    CP:  1.06D+00  1.49D+00  6.39D-01
 E= -727.879749937227     Delta-E=       -0.010403088040 Rises=F Damp=F
 DIIS: error= 4.80D-03 at cycle   4 NSaved=   4.
 NSaved= 4 IEnMin= 4 EnMin= -727.879749937227     IErMin= 4 ErrMin= 4.80D-03
 ErrMax= 4.80D-03  0.00D+00 EMaxC= 1.00D-01 BMatC= 2.24D-03 BMatP= 1.18D-02
 IDIUse=3 WtCom= 9.52D-01 WtEn= 4.80D-02
 Coeff-Com: -0.564D-01 0.156D+00 0.354D+00 0.546D+00
 Coeff-En:   0.000D+00 0.000D+00 0.170D+00 0.830D+00
 Coeff:     -0.537D-01 0.149D+00 0.345D+00 0.559D+00
 Gap=     0.245 Goal=   None    Shift=    0.000
 RMSDP=6.86D-04 MaxDP=2.59D-02 DE=-1.04D-02 OVMax= 2.28D-02

 Cycle   5  Pass 1  IDiag  1:
 RMSU=  2.37D-04    CP:  1.06D+00  1.45D+00  7.33D-01  6.35D-01
 E= -727.882023490429     Delta-E=       -0.002273553202 Rises=F Damp=F
 DIIS: error= 6.91D-04 at cycle   5 NSaved=   5.
 NSaved= 5 IEnMin= 5 EnMin= -727.882023490429     IErMin= 5 ErrMin= 6.91D-04
 ErrMax= 6.91D-04  0.00D+00 EMaxC= 1.00D-01 BMatC= 7.62D-05 BMatP= 2.24D-03
 IDIUse=3 WtCom= 9.93D-01 WtEn= 6.91D-03
 Coeff-Com: -0.174D-01 0.386D-01 0.135D+00 0.277D+00 0.567D+00
 Coeff-En:   0.000D+00 0.000D+00 0.000D+00 0.000D+00 0.100D+01
 Coeff:     -0.172D-01 0.383D-01 0.134D+00 0.275D+00 0.570D+00
 Gap=     0.244 Goal=   None    Shift=    0.000
 RMSDP=1.55D-04 MaxDP=9.93D-03 DE=-2.27D-03 OVMax= 3.95D-03

 Cycle   6  Pass 1  IDiag  1:
 RMSU=  8.41D-05    CP:  1.05D+00  1.46D+00  7.32D-01  6.43D-01  9.92D-01
 E= -727.882091048660     Delta-E=       -0.000067558231 Rises=F Damp=F
 DIIS: error= 1.43D-04 at cycle   6 NSaved=   6.
 NSaved= 6 IEnMin= 6 EnMin= -727.882091048660     IErMin= 6 ErrMin= 1.43D-04
 ErrMax= 1.43D-04  0.00D+00 EMaxC= 1.00D-01 BMatC= 3.49D-06 BMatP= 7.62D-05
 IDIUse=3 WtCom= 9.99D-01 WtEn= 1.43D-03
 Coeff-Com: -0.227D-02 0.281D-02 0.253D-01 0.632D-01 0.237D+00 0.674D+00
 Coeff-En:   0.000D+00 0.000D+00 0.000D+00 0.000D+00 0.000D+00 0.100D+01
 Coeff:     -0.227D-02 0.281D-02 0.252D-01 0.631D-01 0.237D+00 0.675D+00
 Gap=     0.244 Goal=   None    Shift=    0.000
 RMSDP=3.43D-05 MaxDP=1.34D-03 DE=-6.76D-05 OVMax= 5.92D-04

 Cycle   7  Pass 1  IDiag  1:
 RMSU=  9.80D-06    CP:  1.05D+00  1.47D+00  7.33D-01  6.48D-01  9.66D-01
                    CP:  8.02D-01
 E= -727.882093937556     Delta-E=       -0.000002888896 Rises=F Damp=F
 DIIS: error= 2.24D-05 at cycle   7 NSaved=   7.
 NSaved= 7 IEnMin= 7 EnMin= -727.882093937556     IErMin= 7 ErrMin= 2.24D-05
 ErrMax= 2.24D-05  0.00D+00 EMaxC= 1.00D-01 BMatC= 9.30D-08 BMatP= 3.49D-06
 IDIUse=1 WtCom= 1.00D+00 WtEn= 0.00D+00
 Coeff-Com: -0.286D-03-0.565D-04 0.464D-02 0.122D-01 0.594D-01 0.214D+00
 Coeff-Com:  0.710D+00
 Coeff:     -0.286D-03-0.565D-04 0.464D-02 0.122D-01 0.594D-01 0.214D+00
 Coeff:      0.710D+00
 Gap=     0.244 Goal=   None    Shift=    0.000
 RMSDP=6.26D-06 MaxDP=2.39D-04 DE=-2.89D-06 OVMax= 5.27D-05

 Cycle   8  Pass 1  IDiag  1:
 RMSU=  3.91D-06    CP:  1.05D+00  1.47D+00  7.33D-01  6.48D-01  9.65D-01
                    CP:  8.09D-01  7.94D-01
 E= -727.882093968637     Delta-E=       -0.000000031081 Rises=F Damp=F
 DIIS: error= 1.47D-05 at cycle   8 NSaved=   8.
 NSaved= 8 IEnMin= 8 EnMin= -727.882093968637     IErMin= 8 ErrMin= 1.47D-05
 ErrMax= 1.47D-05  0.00D+00 EMaxC= 1.00D-01 BMatC= 4.12D-08 BMatP= 9.30D-08
 IDIUse=1 WtCom= 1.00D+00 WtEn= 0.00D+00
 Coeff-Com:  0.196D-03-0.455D-03-0.102D-02-0.239D-02-0.224D-02 0.150D-01
 Coeff-Com:  0.415D+00 0.576D+00
 Coeff:      0.196D-03-0.455D-03-0.102D-02-0.239D-02-0.224D-02 0.150D-01
 Coeff:      0.415D+00 0.576D+00
 Gap=     0.244 Goal=   None    Shift=    0.000
 RMSDP=3.48D-06 MaxDP=3.78D-04 DE=-3.11D-08 OVMax= 4.01D-05

 Cycle   9  Pass 1  IDiag  1:
 RMSU=  5.64D-07    CP:  1.05D+00  1.47D+00  7.34D-01  6.48D-01  9.71D-01
                    CP:  8.16D-01  8.69D-01  6.18D-01
 E= -727.882093994098     Delta-E=       -0.000000025461 Rises=F Damp=F
 DIIS: error= 1.25D-06 at cycle   9 NSaved=   9.
 NSaved= 9 IEnMin= 9 EnMin= -727.882093994098     IErMin= 9 ErrMin= 1.25D-06
 ErrMax= 1.25D-06  0.00D+00 EMaxC= 1.00D-01 BMatC= 4.70D-10 BMatP= 4.12D-08
 IDIUse=1 WtCom= 1.00D+00 WtEn= 0.00D+00
 Coeff-Com:  0.847D-04-0.183D-03-0.544D-03-0.132D-02-0.281D-02-0.825D-03
 Coeff-Com:  0.133D+00 0.216D+00 0.657D+00
 Coeff:      0.847D-04-0.183D-03-0.544D-03-0.132D-02-0.281D-02-0.825D-03
 Coeff:      0.133D+00 0.216D+00 0.657D+00
 Gap=     0.244 Goal=   None    Shift=    0.000
 RMSDP=7.55D-07 MaxDP=3.20D-05 DE=-2.55D-08 OVMax= 5.61D-06

 Cycle  10  Pass 1  IDiag  1:
 RMSU=  1.70D-07    CP:  1.05D+00  1.47D+00  7.34D-01  6.48D-01  9.70D-01
                    CP:  8.15D-01  8.78D-01  6.37D-01  7.19D-01
 E= -727.882093994392     Delta-E=       -0.000000000294 Rises=F Damp=F
 DIIS: error= 7.52D-07 at cycle  10 NSaved=  10.
 NSaved=10 IEnMin=10 EnMin= -727.882093994392     IErMin=10 ErrMin= 7.52D-07
 ErrMax= 7.52D-07  0.00D+00 EMaxC= 1.00D-01 BMatC= 1.12D-10 BMatP= 4.70D-10
 IDIUse=1 WtCom= 1.00D+00 WtEn= 0.00D+00
 Coeff-Com:  0.259D-04-0.528D-04-0.155D-03-0.377D-03-0.103D-02-0.140D-02
 Coeff-Com:  0.275D-01 0.544D-01 0.356D+00 0.565D+00
 Coeff:      0.259D-04-0.528D-04-0.155D-03-0.377D-03-0.103D-02-0.140D-02
 Coeff:      0.275D-01 0.544D-01 0.356D+00 0.565D+00
 Gap=     0.244 Goal=   None    Shift=    0.000
 RMSDP=1.73D-07 MaxDP=8.15D-06 DE=-2.94D-10 OVMax= 2.71D-06

 Cycle  11  Pass 1  IDiag  1:
 RMSU=  6.02D-08    CP:  1.05D+00  1.47D+00  7.34D-01  6.48D-01  9.70D-01
                    CP:  8.16D-01  8.75D-01  6.42D-01  7.18D-01  8.77D-01
 E= -727.882093994466     Delta-E=       -0.000000000074 Rises=F Damp=F
 DIIS: error= 1.68D-07 at cycle  11 NSaved=  11.
 NSaved=11 IEnMin=11 EnMin= -727.882093994466     IErMin=11 ErrMin= 1.68D-07
 ErrMax= 1.68D-07  0.00D+00 EMaxC= 1.00D-01 BMatC= 5.67D-12 BMatP= 1.12D-10
 IDIUse=1 WtCom= 1.00D+00 WtEn= 0.00D+00
 Coeff-Com:  0.344D-05-0.598D-05-0.168D-04-0.472D-04-0.204D-03-0.431D-03
 Coeff-Com: -0.184D-02-0.977D-04 0.681D-01 0.226D+00 0.709D+00
 Coeff:      0.344D-05-0.598D-05-0.168D-04-0.472D-04-0.204D-03-0.431D-03
 Coeff:     -0.184D-02-0.977D-04 0.681D-01 0.226D+00 0.709D+00
 Gap=     0.244 Goal=   None    Shift=    0.000
 RMSDP=3.34D-08 MaxDP=1.66D-06 DE=-7.41D-11 OVMax= 6.83D-07

 Cycle  12  Pass 1  IDiag  1:
 RMSU=  1.22D-08    CP:  1.05D+00  1.47D+00  7.34D-01  6.48D-01  9.70D-01
                    CP:  8.16D-01  8.75D-01  6.42D-01  7.35D-01  8.69D-01
                    CP:  8.93D-01
 E= -727.882093994471     Delta-E=       -0.000000000005 Rises=F Damp=F
 DIIS: error= 7.40D-08 at cycle  12 NSaved=  12.
 NSaved=12 IEnMin=12 EnMin= -727.882093994471     IErMin=12 ErrMin= 7.40D-08
 ErrMax= 7.40D-08  0.00D+00 EMaxC= 1.00D-01 BMatC= 1.16D-12 BMatP= 5.67D-12
 IDIUse=1 WtCom= 1.00D+00 WtEn= 0.00D+00
 Coeff-Com: -0.398D-06 0.148D-05 0.747D-05 0.134D-04-0.149D-04-0.108D-03
 Coeff-Com: -0.419D-02-0.591D-02 0.691D-02 0.900D-01 0.415D+00 0.498D+00
 Coeff:     -0.398D-06 0.148D-05 0.747D-05 0.134D-04-0.149D-04-0.108D-03
 Coeff:     -0.419D-02-0.591D-02 0.691D-02 0.900D-01 0.415D+00 0.498D+00
 Gap=     0.244 Goal=   None    Shift=    0.000
 RMSDP=1.72D-08 MaxDP=6.92D-07 DE=-5.00D-12 OVMax= 2.14D-07

 Cycle  13  Pass 1  IDiag  1:
 RMSU=  4.02D-09    CP:  1.05D+00  1.47D+00  7.34D-01  6.48D-01  9.70D-01
                    CP:  8.16D-01  8.75D-01  6.42D-01  7.33D-01  8.82D-01
                    CP:  9.03D-01  7.91D-01
 E= -727.882093994472     Delta-E=       -0.000000000001 Rises=F Damp=F
 DIIS: error= 9.30D-09 at cycle  13 NSaved=  13.
 NSaved=13 IEnMin=13 EnMin= -727.882093994472     IErMin=13 ErrMin= 9.30D-09
 ErrMax= 9.30D-09  0.00D+00 EMaxC= 1.00D-01 BMatC= 2.15D-14 BMatP= 1.16D-12
 IDIUse=1 WtCom= 1.00D+00 WtEn= 0.00D+00
 Coeff-Com: -0.207D-06 0.454D-06 0.264D-05 0.453D-05 0.590D-05 0.192D-04
 Coeff-Com: -0.489D-03-0.914D-03-0.466D-02 0.334D-02 0.141D-01 0.506D-01
 Coeff-Com:  0.938D+00
 Coeff:     -0.207D-06 0.454D-06 0.264D-05 0.453D-05 0.590D-05 0.192D-04
 Coeff:     -0.489D-03-0.914D-03-0.466D-02 0.334D-02 0.141D-01 0.506D-01
 Coeff:      0.938D+00
 Gap=     0.244 Goal=   None    Shift=    0.000
 RMSDP=4.87D-09 MaxDP=2.79D-07 DE=-1.14D-12 OVMax= 7.25D-08

 SCF Done:  E(RPBE1PBE) =  -727.882093994     A.U. after   13 cycles
            NFock= 13  Conv=0.49D-08     -V/T= 2.0026
 KE= 7.259927013960D+02 PE=-2.972658072335D+03 EE= 8.936475827250D+02
 Leave Link  502 at Tue Jan 21 13:11:45 2025, MaxMem=   104857600 cpu:              47.2 elap:              47.3
 (Enter /sw/cluster/pub/apps//g16/l601.exe)
 Copying SCF densities to generalized density rwf, IOpCl= 0 IROHF=0.

 **********************************************************************

            Population analysis using the SCF density.

 **********************************************************************

 Alpha  occ. eigenvalues --  -24.82816 -24.82396 -24.82394 -24.82079 -24.82078
 Alpha  occ. eigenvalues --  -10.36376 -10.35907 -10.35906 -10.35677 -10.35673
 Alpha  occ. eigenvalues --  -10.27826  -1.32463  -1.31607  -1.31050  -1.30204
 Alpha  occ. eigenvalues --   -1.29951  -0.95112  -0.83334  -0.82596  -0.71668
 Alpha  occ. eigenvalues --   -0.70704  -0.64169  -0.63292  -0.62192  -0.58867
 Alpha  occ. eigenvalues --   -0.58280  -0.56575  -0.55778  -0.53731  -0.52688
 Alpha  occ. eigenvalues --   -0.51419  -0.50844  -0.50453  -0.48323  -0.48014
 Alpha  occ. eigenvalues --   -0.45199  -0.43408  -0.41953  -0.39367  -0.30097
 Alpha  occ. eigenvalues --   -0.28795
 Alpha virt. eigenvalues --   -0.04385  -0.02985  -0.02945   0.00787   0.02063
 Alpha virt. eigenvalues --    0.04898   0.05188   0.06356   0.06665   0.08024
 Alpha virt. eigenvalues --    0.08621   0.09203   0.09535   0.11342   0.12164
 Alpha virt. eigenvalues --    0.12363   0.12731   0.12841   0.13219   0.14653
 Alpha virt. eigenvalues --    0.15035   0.16118   0.16147   0.17206   0.17465
 Alpha virt. eigenvalues --    0.18776   0.19130   0.20296   0.20742   0.22805
 Alpha virt. eigenvalues --    0.24923   0.25072   0.26375   0.26989   0.27405
 Alpha virt. eigenvalues --    0.29738   0.31390   0.32345   0.33014   0.33362
 Alpha virt. eigenvalues --    0.33976   0.34853   0.35395   0.35406   0.37899
 Alpha virt. eigenvalues --    0.38331   0.39217   0.39379   0.39490   0.41409
 Alpha virt. eigenvalues --    0.41767   0.41939   0.43301   0.43693   0.48168
 Alpha virt. eigenvalues --    0.50483   0.51581   0.52052   0.53110   0.53440
 Alpha virt. eigenvalues --    0.55413   0.55458   0.56227   0.57336   0.60570
 Alpha virt. eigenvalues --    0.62165   0.62789   0.68975   0.70580   0.71614
 Alpha virt. eigenvalues --    0.72874   0.74427   0.77047   0.81441   0.82311
 Alpha virt. eigenvalues --    0.86462   0.90535   0.90883   0.92587   0.95024
 Alpha virt. eigenvalues --    0.95120   0.97760   1.01225   1.04210   1.05695
 Alpha virt. eigenvalues --    1.07572   1.09679   1.13155   1.15383   1.17340
 Alpha virt. eigenvalues --    1.24724   1.28800   1.36514   1.39602   1.40201
 Alpha virt. eigenvalues --    1.41706   1.42126   1.42411   1.43569   1.43789
 Alpha virt. eigenvalues --    1.44327   1.44945   1.47514   1.51960   1.52618
 Alpha virt. eigenvalues --    1.53449   1.54050   1.54139   1.57394   1.57976
 Alpha virt. eigenvalues --    1.58678   1.63179   1.71571   1.72578   1.75570
 Alpha virt. eigenvalues --    1.79156   1.81640   1.81943   1.84180   1.84803
 Alpha virt. eigenvalues --    1.93692   1.94880   2.00389   2.00976   2.02750
 Alpha virt. eigenvalues --    2.07434   2.07494   2.13472   2.17342   2.20317
 Alpha virt. eigenvalues --    2.20992   2.25280   2.27580   2.38564   2.39755
 Alpha virt. eigenvalues --    2.56724   2.57042   2.66047   2.68551   2.71349
 Alpha virt. eigenvalues --    2.72288   2.82292   2.84238   3.06209   3.06299
 Alpha virt. eigenvalues --    3.10869   3.12166   3.14380   3.19694   3.23221
 Alpha virt. eigenvalues --    3.36178   3.43926   3.61418   3.72669   3.73453
 Alpha virt. eigenvalues --    3.75209   3.76307   3.76668   3.77081   3.77328
 Alpha virt. eigenvalues --    3.78249   3.83091   3.83323   3.86670   3.93597
 Alpha virt. eigenvalues --    3.94995   3.96244   3.98148   3.98674   4.00958
 Alpha virt. eigenvalues --    4.04504   4.05966   4.07488   4.13673   4.18926
 Alpha virt. eigenvalues --    4.23347   4.69719   4.82192   4.87872   4.88074
 Alpha virt. eigenvalues --    4.94171   4.99896   6.29302   6.32674   6.33797
 Alpha virt. eigenvalues --    6.35815   6.38256   6.39236   6.43899   6.46768
 Alpha virt. eigenvalues --    6.49401   6.56677   6.57492   6.77244   6.81810
 Alpha virt. eigenvalues --    6.86144   6.92807  23.47263  23.90226  23.93653
 Alpha virt. eigenvalues --   24.07830  24.10764  24.22878  66.87577  66.90777
 Alpha virt. eigenvalues --   66.92440  66.94287  66.98933
          Condensed to atoms (all electrons):
               1          2          3          4          5          6
     1  C   12.712634  -0.573061   1.143937  -3.026496  -2.808662  -1.283576
     2  C   -0.573061  12.901812  -0.573919  -1.529181  -3.335972  -1.527417
     3  C    1.143937  -0.573919  12.713224  -1.280125  -2.813514  -3.024111
     4  C   -3.026496  -1.529181  -1.280125  14.714565  -0.141046  -2.966169
     5  C   -2.808662  -3.335972  -2.813514  -0.141046  14.999904  -0.137831
     6  C   -1.283576  -1.527417  -3.024111  -2.966169  -0.137831  14.710570
     7  H   -0.111111   0.550216  -0.111132  -0.016156  -0.012840  -0.016137
     8  F    0.004622  -0.247996   0.564766  -0.270385  -0.017085  -0.001873
     9  F    0.009362  -0.074565  -0.258232   0.610726  -0.207670  -0.056395
    10  F   -0.069444   0.030428  -0.069374  -0.214053   0.564247  -0.214001
    11  F   -0.257974  -0.074594   0.009378  -0.056492  -0.207513   0.610370
    12  F    0.564824  -0.248212   0.004693  -0.001946  -0.016977  -0.270289
               7          8          9         10         11         12
     1  C   -0.111111   0.004622   0.009362  -0.069444  -0.257974   0.564824
     2  C    0.550216  -0.247996  -0.074565   0.030428  -0.074594  -0.248212
     3  C   -0.111132   0.564766  -0.258232  -0.069374   0.009378   0.004693
     4  C   -0.016156  -0.270385   0.610726  -0.214053  -0.056492  -0.001946
     5  C   -0.012840  -0.017085  -0.207670   0.564247  -0.207513  -0.016977
     6  C   -0.016137  -0.001873  -0.056395  -0.214001   0.610370  -0.270289
     7  H    0.473280  -0.018921  -0.000048   0.000440  -0.000049  -0.018934
     8  F   -0.018921   9.137265   0.007107   0.000298   0.000023  -0.000231
     9  F   -0.000048   0.007107   9.153083   0.003355   0.000267   0.000023
    10  F    0.000440   0.000298   0.003355   9.137031   0.003338   0.000297
    11  F   -0.000049   0.000023   0.000267   0.003338   9.153232   0.007116
    12  F   -0.018934  -0.000231   0.000023   0.000297   0.007116   9.137158
 Mulliken charges:
               1
     1  C   -0.305054
     2  C    0.702461
     3  C   -0.305591
     4  C    0.176759
     5  C    0.134959
     6  C    0.176859
     7  H    0.281391
     8  F   -0.157588
     9  F   -0.187013
    10  F   -0.172561
    11  F   -0.187101
    12  F   -0.157521
 Sum of Mulliken charges =  -0.00000
 Mulliken charges with hydrogens summed into heavy atoms:
               1
     1  C   -0.305054
     2  C    0.983853
     3  C   -0.305591
     4  C    0.176759
     5  C    0.134959
     6  C    0.176859
     8  F   -0.157588
     9  F   -0.187013
    10  F   -0.172561
    11  F   -0.187101
    12  F   -0.157521
 Electronic spatial extent (au):  <R**2>=           1586.1555
 Charge=             -0.0000 electrons
 Dipole moment (field-independent basis, Debye):
    X=              1.2685    Y=             -0.7318    Z=             -0.0000  Tot=              1.4644
 Quadrupole moment (field-independent basis, Debye-Ang):
   XX=            -61.2079   YY=            -65.0075   ZZ=            -57.1210
   XY=             -3.2938   XZ=             -0.0000   YZ=              0.0000
 Traceless Quadrupole moment (field-independent basis, Debye-Ang):
   XX=             -0.0958   YY=             -3.8953   ZZ=              3.9911
   XY=             -3.2938   XZ=             -0.0000   YZ=              0.0000
 Octapole moment (field-independent basis, Debye-Ang**2):
  XXX=             42.7771  YYY=            -18.5851  ZZZ=              0.0000  XYY=             14.2556
  XXY=            -14.3368  XXZ=              0.0000  XZZ=              9.0053  YZZ=             -5.1986
  YYZ=             -0.0000  XYZ=             -0.0000
 Hexadecapole moment (field-independent basis, Debye-Ang**3):
 XXXX=           -772.2371 YYYY=           -902.0804 ZZZZ=            -51.4379 XXXY=            -64.3579
 XXXZ=              0.0000 YYYX=            -48.0910 YYYZ=             -0.0000 ZZZX=              0.0000
 ZZZY=             -0.0000 XXYY=           -272.7849 XXZZ=           -130.4127 YYZZ=           -145.1943
 XXYZ=              0.0000 YYXZ=              0.0000 ZZXY=            -12.8012
 N-N= 6.251356942200D+02 E-N=-2.972658072319D+03  KE= 7.259927013960D+02
 No NMR shielding tensors so no spin-rotation constants.
 Leave Link  601 at Tue Jan 21 13:11:45 2025, MaxMem=   104857600 cpu:               0.1 elap:               0.1
 (Enter /sw/cluster/pub/apps//g16/l9999.exe)
 1\1\GINC-N12\SP\RPBE1PBE\6-311++G(d,p)\C6H1F5\UNKNOWN\21-Jan-2025\0\\#
 p PBE1PBE/6-311++G(d,p) density=current nosymm\\PFB SP\\0,1\C,0,1.1915
 33155,0.685361649,0.\C,0,1.207116452,-0.696976719,0.\C,0,0.002290528,-
 1.374756555,-0.000000001\C,0,-1.206044825,-0.694328245,0.\C,0,-1.20156
 9997,0.693813398,0.000000001\C,0,-0.001779796,1.391907766,-0.000000001
 \H,0,2.144795629,-1.238074972,0.\F,0,-0.014349212,-2.704782154,0.\F,0,
 -2.357752916,-1.350837526,0.000000001\F,0,-2.34780731,1.355023123,-0.0
 00000001\F,0,-0.008716183,2.717604627,0.000000001\F,0,2.335218998,1.36
 4462433,0.\\Version=ES64L-G16RevA.03\HF=-727.882094\RMSD=4.869e-09\Dip
 ole=0.4990555,-0.2879125,0.\Quadrupole=-0.0711995,-2.8960938,2.9672933
 ,-2.4488363,0.,0.\PG=CS [SG(C6H1F5)]\\@


 AND THIS OUR LIFE, EXEMPT FROM PUBLIC HAUNT,
 FINDS TONGUES IN TREES, BOOKS IN THE RUNNING BROOKS,
 SERMONS IN STONES, AND GOOD IN EVERYTHING.
 I WOULD NOT CHANGE IT. -- W. SHAKESPEARE
 AS YOU LIKE IT, ACT II, SCENE 1.
 Job cpu time:       0 days  0 hours  0 minutes 48.9 seconds.
 Elapsed time:       0 days  0 hours  0 minutes 49.0 seconds.
 File lengths (MBytes):  RWF=     37 Int=      0 D2E=      0 Chk=      5 Scr=      1
 Normal termination of Gaussian 16 at Tue Jan 21 13:11:45 2025.
