PFB SP                                                                  
SP        RPBE1PBE                                                    6-311++G(d,p)       
Number of atoms                            I               12
Info1-9                                    I   N=           9
          19          19           0           0           0         110
           1          18        -302
Full Title                                 C   N=           1
PFB SP      
Route                                      C   N=           4
#p PBE1PBE/6-311++G(d,p) density=current nosymm 
Charge                                     I                0
Multiplicity                               I                1
Number of electrons                        I               82
Number of alpha electrons                  I               41
Number of beta electrons                   I               41
Number of basis functions                  I              249
Number of independent functions            I              249
Number of point charges in /Mol/           I                0
Number of translation vectors              I                0
Atomic numbers                             I   N=          12
           6           6           6           6           6           6
           1           9           9           9           9           9
Nuclear charges                            R   N=          12
  6.00000000E+00  6.00000000E+00  6.00000000E+00  6.00000000E+00  6.00000000E+00
  6.00000000E+00  1.00000000E+00  9.00000000E+00  9.00000000E+00  9.00000000E+00
  9.00000000E+00  9.00000000E+00
Current cartesian coordinates              R   N=          36
  2.25167133E+00  1.29514581E+00  0.00000000E+00  2.28111949E+00 -1.31709511E+00
  0.00000000E+00  4.32847060E-03 -2.59791338E+00 -1.88972612E-09 -2.27909441E+00
 -1.31209022E+00  0.00000000E+00 -2.27063821E+00  1.31111730E+00  1.88972612E-09
 -3.36332700E-03  2.63032447E+00 -1.88972612E-09  4.05307633E+00 -2.33962262E+00
  0.00000000E+00 -2.71160808E-02 -5.11129750E+00  0.00000000E+00 -4.45550728E+00
 -2.55271296E+00  1.88972612E-09 -4.43671281E+00  2.56062259E+00 -1.88972612E-09
 -1.64711987E-02  5.13552846E+00  1.88972612E-09  4.41292435E+00  2.57846031E+00
  0.00000000E+00
Number of symbols in /Mol/                 I                0
Force Field                                I                0
Atom Types                                 C   N=          12
                                                            
                                                            
                        
Int Atom Types                             I   N=          12
           0           0           0           0           0           0
           0           0           0           0           0           0
MM charges                                 R   N=          12
  0.00000000E+00  0.00000000E+00  0.00000000E+00  0.00000000E+00  0.00000000E+00
  0.00000000E+00  0.00000000E+00  0.00000000E+00  0.00000000E+00  0.00000000E+00
  0.00000000E+00  0.00000000E+00
Integer atomic weights                     I   N=          12
          12          12          12          12          12          12
           1          19          19          19          19          19
Real atomic weights                        R   N=          12
  1.20000000E+01  1.20000000E+01  1.20000000E+01  1.20000000E+01  1.20000000E+01
  1.20000000E+01  1.00782504E+00  1.89984032E+01  1.89984032E+01  1.89984032E+01
  1.89984032E+01  1.89984032E+01
Atom fragment info                         I   N=          12
           0           0           0           0           0           0
           0           0           0           0           0           0
Atom residue num                           I   N=          12
           0           0           0           0           0           0
           0           0           0           0           0           0
Nuclear spins                              I   N=          12
           0           0           0           0           0           0
           1           1           1           1           1           1
Nuclear ZEff                               R   N=          12
 -3.60000000E+00 -3.60000000E+00 -3.60000000E+00 -3.60000000E+00 -3.60000000E+00
 -3.60000000E+00 -1.00000000E+00 -6.75000000E+00 -6.75000000E+00 -6.75000000E+00
 -6.75000000E+00 -6.75000000E+00
Nuclear ZNuc                               R   N=          12
  6.00000000E+00  6.00000000E+00  6.00000000E+00  6.00000000E+00  6.00000000E+00
  6.00000000E+00  1.00000000E+00  9.00000000E+00  9.00000000E+00  9.00000000E+00
  9.00000000E+00  9.00000000E+00
Nuclear QMom                               R   N=          12
  0.00000000E+00  0.00000000E+00  0.00000000E+00  0.00000000E+00  0.00000000E+00
  0.00000000E+00  0.00000000E+00  0.00000000E+00  0.00000000E+00  0.00000000E+00
  0.00000000E+00  0.00000000E+00
Nuclear GFac                               R   N=          12
  0.00000000E+00  0.00000000E+00  0.00000000E+00  0.00000000E+00  0.00000000E+00
  0.00000000E+00  2.79284600E+00  2.62886700E+00  2.62886700E+00  2.62886700E+00
  2.62886700E+00  2.62886700E+00
MicOpt                                     I   N=          12
          -1          -1          -1          -1          -1          -1
          -1          -1          -1          -1          -1          -1
Number of residues                         I                0
Number of secondary structures             I                0
SymInf integers                            I   N=          26
           1           2           1           1           1           1
           1          -1           0           0           0           0
           0           0           0           0           0           0
           0           0           0           0           0           0
           0           0
RotTr to input orientation                 R   N=          12
  5.00076471E-01  8.65981249E-01  1.98232931E-25 -8.65981249E-01  5.00076471E-01
 -6.96800267E-21 -6.03425879E-21  3.48436252E-21  1.00000000E+00 -4.48155254E-01
  2.58691691E-01  6.91363216E-11
Number of contracted shells                I               71
Number of primitive shells                 I              150
Pure/Cartesian d shells                    I                0
Pure/Cartesian f shells                    I                0
Highest angular momentum                   I                2
Largest degree of contraction              I                6
Shell types                                I   N=          71
           0          -1          -1          -1          -1          -2
           0          -1          -1          -1          -1          -2
           0          -1          -1          -1          -1          -2
           0          -1          -1          -1          -1          -2
           0          -1          -1          -1          -1          -2
           0          -1          -1          -1          -1          -2
           0           0           0           0           1           0
          -1          -1          -1          -1          -2           0
          -1          -1          -1          -1          -2           0
          -1          -1          -1          -1          -2           0
          -1          -1          -1          -1          -2           0
          -1          -1          -1          -1          -2
Number of primitives per shell             I   N=          71
           6           3           1           1           1           1
           6           3           1           1           1           1
           6           3           1           1           1           1
           6           3           1           1           1           1
           6           3           1           1           1           1
           6           3           1           1           1           1
           3           1           1           1           1           6
           3           1           1           1           1           6
           3           1           1           1           1           6
           3           1           1           1           1           6
           3           1           1           1           1           6
           3           1           1           1           1
Shell to atom map                          I   N=          71
           1           1           1           1           1           1
           2           2           2           2           2           2
           3           3           3           3           3           3
           4           4           4           4           4           4
           5           5           5           5           5           5
           6           6           6           6           6           6
           7           7           7           7           7           8
           8           8           8           8           8           9
           9           9           9           9           9          10
          10          10          10          10          10          11
          11          11          11          11          11          12
          12          12          12          12          12
Primitive exponents                        R   N=         150
  4.56324000E+03  6.82024000E+02  1.54973000E+02  4.44553000E+01  1.30290000E+01
  1.82773000E+00  2.09642000E+01  4.80331000E+00  1.45933000E+00  4.83456000E-01
  1.45585000E-01  4.38000000E-02  6.26000000E-01  4.56324000E+03  6.82024000E+02
  1.54973000E+02  4.44553000E+01  1.30290000E+01  1.82773000E+00  2.09642000E+01
  4.80331000E+00  1.45933000E+00  4.83456000E-01  1.45585000E-01  4.38000000E-02
  6.26000000E-01  4.56324000E+03  6.82024000E+02  1.54973000E+02  4.44553000E+01
  1.30290000E+01  1.82773000E+00  2.09642000E+01  4.80331000E+00  1.45933000E+00
  4.83456000E-01  1.45585000E-01  4.38000000E-02  6.26000000E-01  4.56324000E+03
  6.82024000E+02  1.54973000E+02  4.44553000E+01  1.30290000E+01  1.82773000E+00
  2.09642000E+01  4.80331000E+00  1.45933000E+00  4.83456000E-01  1.45585000E-01
  4.38000000E-02  6.26000000E-01  4.56324000E+03  6.82024000E+02  1.54973000E+02
  4.44553000E+01  1.30290000E+01  1.82773000E+00  2.09642000E+01  4.80331000E+00
  1.45933000E+00  4.83456000E-01  1.45585000E-01  4.38000000E-02  6.26000000E-01
  4.56324000E+03  6.82024000E+02  1.54973000E+02  4.44553000E+01  1.30290000E+01
  1.82773000E+00  2.09642000E+01  4.80331000E+00  1.45933000E+00  4.83456000E-01
  1.45585000E-01  4.38000000E-02  6.26000000E-01  3.38650000E+01  5.09479000E+00
  1.15879000E+00  3.25840000E-01  1.02741000E-01  3.60000000E-02  7.50000000E-01
  1.14271000E+04  1.72235000E+03  3.95746000E+02  1.15139000E+02  3.36026000E+01
  4.91901000E+00  5.54441000E+01  1.26323000E+01  3.71756000E+00  1.16545000E+00
  3.21892000E-01  1.07600000E-01  1.75000000E+00  1.14271000E+04  1.72235000E+03
  3.95746000E+02  1.15139000E+02  3.36026000E+01  4.91901000E+00  5.54441000E+01
  1.26323000E+01  3.71756000E+00  1.16545000E+00  3.21892000E-01  1.07600000E-01
  1.75000000E+00  1.14271000E+04  1.72235000E+03  3.95746000E+02  1.15139000E+02
  3.36026000E+01  4.91901000E+00  5.54441000E+01  1.26323000E+01  3.71756000E+00
  1.16545000E+00  3.21892000E-01  1.07600000E-01  1.75000000E+00  1.14271000E+04
  1.72235000E+03  3.95746000E+02  1.15139000E+02  3.36026000E+01  4.91901000E+00
  5.54441000E+01  1.26323000E+01  3.71756000E+00  1.16545000E+00  3.21892000E-01
  1.07600000E-01  1.75000000E+00  1.14271000E+04  1.72235000E+03  3.95746000E+02
  1.15139000E+02  3.36026000E+01  4.91901000E+00  5.54441000E+01  1.26323000E+01
  3.71756000E+00  1.16545000E+00  3.21892000E-01  1.07600000E-01  1.75000000E+00
Contraction coefficients                   R   N=         150
  1.96665025E-03  1.52306019E-02  7.61269097E-02  2.60801033E-01  6.16462078E-01
  2.21006028E-01  1.14660081E-01  9.19999648E-01 -3.03068213E-03  1.00000000E+00
  1.00000000E+00  1.00000000E+00  1.00000000E+00  1.96665025E-03  1.52306019E-02
  7.61269097E-02  2.60801033E-01  6.16462078E-01  2.21006028E-01  1.14660081E-01
  9.19999648E-01 -3.03068213E-03  1.00000000E+00  1.00000000E+00  1.00000000E+00
  1.00000000E+00  1.96665025E-03  1.52306019E-02  7.61269097E-02  2.60801033E-01
  6.16462078E-01  2.21006028E-01  1.14660081E-01  9.19999648E-01 -3.03068213E-03
  1.00000000E+00  1.00000000E+00  1.00000000E+00  1.00000000E+00  1.96665025E-03
  1.52306019E-02  7.61269097E-02  2.60801033E-01  6.16462078E-01  2.21006028E-01
  1.14660081E-01  9.19999648E-01 -3.03068213E-03  1.00000000E+00  1.00000000E+00
  1.00000000E+00  1.00000000E+00  1.96665025E-03  1.52306019E-02  7.61269097E-02
  2.60801033E-01  6.16462078E-01  2.21006028E-01  1.14660081E-01  9.19999648E-01
 -3.03068213E-03  1.00000000E+00  1.00000000E+00  1.00000000E+00  1.00000000E+00
  1.96665025E-03  1.52306019E-02  7.61269097E-02  2.60801033E-01  6.16462078E-01
  2.21006028E-01  1.14660081E-01  9.19999648E-01 -3.03068213E-03  1.00000000E+00
  1.00000000E+00  1.00000000E+00  1.00000000E+00  2.54938145E-02  1.90373109E-01
  8.52161486E-01  1.00000000E+00  1.00000000E+00  1.00000000E+00  1.00000000E+00
  1.80093016E-03  1.37419012E-02  6.81334059E-02  2.33325020E-01  5.89086051E-01
  2.99505026E-01  1.14536016E-01  9.20512125E-01 -3.37804046E-03  1.00000000E+00
  1.00000000E+00  1.00000000E+00  1.00000000E+00  1.80093016E-03  1.37419012E-02
  6.81334059E-02  2.33325020E-01  5.89086051E-01  2.99505026E-01  1.14536016E-01
  9.20512125E-01 -3.37804046E-03  1.00000000E+00  1.00000000E+00  1.00000000E+00
  1.00000000E+00  1.80093016E-03  1.37419012E-02  6.81334059E-02  2.33325020E-01
  5.89086051E-01  2.99505026E-01  1.14536016E-01  9.20512125E-01 -3.37804046E-03
  1.00000000E+00  1.00000000E+00  1.00000000E+00  1.00000000E+00  1.80093016E-03
  1.37419012E-02  6.81334059E-02  2.33325020E-01  5.89086051E-01  2.99505026E-01
  1.14536016E-01  9.20512125E-01 -3.37804046E-03  1.00000000E+00  1.00000000E+00
  1.00000000E+00  1.00000000E+00  1.80093016E-03  1.37419012E-02  6.81334059E-02
  2.33325020E-01  5.89086051E-01  2.99505026E-01  1.14536016E-01  9.20512125E-01
 -3.37804046E-03  1.00000000E+00  1.00000000E+00  1.00000000E+00  1.00000000E+00
P(S=P) Contraction coefficients            R   N=         150
  0.00000000E+00  0.00000000E+00  0.00000000E+00  0.00000000E+00  0.00000000E+00
  0.00000000E+00  4.02486927E-02  2.37593957E-01  8.15853851E-01  1.00000000E+00
  1.00000000E+00  1.00000000E+00  0.00000000E+00  0.00000000E+00  0.00000000E+00
  0.00000000E+00  0.00000000E+00  0.00000000E+00  0.00000000E+00  4.02486927E-02
  2.37593957E-01  8.15853851E-01  1.00000000E+00  1.00000000E+00  1.00000000E+00
  0.00000000E+00  0.00000000E+00  0.00000000E+00  0.00000000E+00  0.00000000E+00
  0.00000000E+00  0.00000000E+00  4.02486927E-02  2.37593957E-01  8.15853851E-01
  1.00000000E+00  1.00000000E+00  1.00000000E+00  0.00000000E+00  0.00000000E+00
  0.00000000E+00  0.00000000E+00  0.00000000E+00  0.00000000E+00  0.00000000E+00
  4.02486927E-02  2.37593957E-01  8.15853851E-01  1.00000000E+00  1.00000000E+00
  1.00000000E+00  0.00000000E+00  0.00000000E+00  0.00000000E+00  0.00000000E+00
  0.00000000E+00  0.00000000E+00  0.00000000E+00  4.02486927E-02  2.37593957E-01
  8.15853851E-01  1.00000000E+00  1.00000000E+00  1.00000000E+00  0.00000000E+00
  0.00000000E+00  0.00000000E+00  0.00000000E+00  0.00000000E+00  0.00000000E+00
  0.00000000E+00  4.02486927E-02  2.37593957E-01  8.15853851E-01  1.00000000E+00
  1.00000000E+00  1.00000000E+00  0.00000000E+00  0.00000000E+00  0.00000000E+00
  0.00000000E+00  0.00000000E+00  0.00000000E+00  0.00000000E+00  0.00000000E+00
  0.00000000E+00  0.00000000E+00  0.00000000E+00  0.00000000E+00  0.00000000E+00
  0.00000000E+00  3.54608874E-02  2.37450915E-01  8.20457708E-01  1.00000000E+00
  1.00000000E+00  1.00000000E+00  0.00000000E+00  0.00000000E+00  0.00000000E+00
  0.00000000E+00  0.00000000E+00  0.00000000E+00  0.00000000E+00  3.54608874E-02
  2.37450915E-01  8.20457708E-01  1.00000000E+00  1.00000000E+00  1.00000000E+00
  0.00000000E+00  0.00000000E+00  0.00000000E+00  0.00000000E+00  0.00000000E+00
  0.00000000E+00  0.00000000E+00  3.54608874E-02  2.37450915E-01  8.20457708E-01
  1.00000000E+00  1.00000000E+00  1.00000000E+00  0.00000000E+00  0.00000000E+00
  0.00000000E+00  0.00000000E+00  0.00000000E+00  0.00000000E+00  0.00000000E+00
  3.54608874E-02  2.37450915E-01  8.20457708E-01  1.00000000E+00  1.00000000E+00
  1.00000000E+00  0.00000000E+00  0.00000000E+00  0.00000000E+00  0.00000000E+00
  0.00000000E+00  0.00000000E+00  0.00000000E+00  3.54608874E-02  2.37450915E-01
  8.20457708E-01  1.00000000E+00  1.00000000E+00  1.00000000E+00  0.00000000E+00
Coordinates of each shell                  R   N=         213
  2.25167133E+00  1.29514581E+00  0.00000000E+00  2.25167133E+00  1.29514581E+00
  0.00000000E+00  2.25167133E+00  1.29514581E+00  0.00000000E+00  2.25167133E+00
  1.29514581E+00  0.00000000E+00  2.25167133E+00  1.29514581E+00  0.00000000E+00
  2.25167133E+00  1.29514581E+00  0.00000000E+00  2.28111949E+00 -1.31709511E+00
  0.00000000E+00  2.28111949E+00 -1.31709511E+00  0.00000000E+00  2.28111949E+00
 -1.31709511E+00  0.00000000E+00  2.28111949E+00 -1.31709511E+00  0.00000000E+00
  2.28111949E+00 -1.31709511E+00  0.00000000E+00  2.28111949E+00 -1.31709511E+00
  0.00000000E+00  4.32847060E-03 -2.59791338E+00 -1.88972612E-09  4.32847060E-03
 -2.59791338E+00 -1.88972612E-09  4.32847060E-03 -2.59791338E+00 -1.88972612E-09
  4.32847060E-03 -2.59791338E+00 -1.88972612E-09  4.32847060E-03 -2.59791338E+00
 -1.88972612E-09  4.32847060E-03 -2.59791338E+00 -1.88972612E-09 -2.27909441E+00
 -1.31209022E+00  0.00000000E+00 -2.27909441E+00 -1.31209022E+00  0.00000000E+00
 -2.27909441E+00 -1.31209022E+00  0.00000000E+00 -2.27909441E+00 -1.31209022E+00
  0.00000000E+00 -2.27909441E+00 -1.31209022E+00  0.00000000E+00 -2.27909441E+00
 -1.31209022E+00  0.00000000E+00 -2.27063821E+00  1.31111730E+00  1.88972612E-09
 -2.27063821E+00  1.31111730E+00  1.88972612E-09 -2.27063821E+00  1.31111730E+00
  1.88972612E-09 -2.27063821E+00  1.31111730E+00  1.88972612E-09 -2.27063821E+00
  1.31111730E+00  1.88972612E-09 -2.27063821E+00  1.31111730E+00  1.88972612E-09
 -3.36332700E-03  2.63032447E+00 -1.88972612E-09 -3.36332700E-03  2.63032447E+00
 -1.88972612E-09 -3.36332700E-03  2.63032447E+00 -1.88972612E-09 -3.36332700E-03
  2.63032447E+00 -1.88972612E-09 -3.36332700E-03  2.63032447E+00 -1.88972612E-09
 -3.36332700E-03  2.63032447E+00 -1.88972612E-09  4.05307633E+00 -2.33962262E+00
  0.00000000E+00  4.05307633E+00 -2.33962262E+00  0.00000000E+00  4.05307633E+00
 -2.33962262E+00  0.00000000E+00  4.05307633E+00 -2.33962262E+00  0.00000000E+00
  4.05307633E+00 -2.33962262E+00  0.00000000E+00 -2.71160808E-02 -5.11129750E+00
  0.00000000E+00 -2.71160808E-02 -5.11129750E+00  0.00000000E+00 -2.71160808E-02
 -5.11129750E+00  0.00000000E+00 -2.71160808E-02 -5.11129750E+00  0.00000000E+00
 -2.71160808E-02 -5.11129750E+00  0.00000000E+00 -2.71160808E-02 -5.11129750E+00
  0.00000000E+00 -4.45550728E+00 -2.55271296E+00  1.88972612E-09 -4.45550728E+00
 -2.55271296E+00  1.88972612E-09 -4.45550728E+00 -2.55271296E+00  1.88972612E-09
 -4.45550728E+00 -2.55271296E+00  1.88972612E-09 -4.45550728E+00 -2.55271296E+00
  1.88972612E-09 -4.45550728E+00 -2.55271296E+00  1.88972612E-09 -4.43671281E+00
  2.56062259E+00 -1.88972612E-09 -4.43671281E+00  2.56062259E+00 -1.88972612E-09
 -4.43671281E+00  2.56062259E+00 -1.88972612E-09 -4.43671281E+00  2.56062259E+00
 -1.88972612E-09 -4.43671281E+00  2.56062259E+00 -1.88972612E-09 -4.43671281E+00
  2.56062259E+00 -1.88972612E-09 -1.64711987E-02  5.13552846E+00  1.88972612E-09
 -1.64711987E-02  5.13552846E+00  1.88972612E-09 -1.64711987E-02  5.13552846E+00
  1.88972612E-09 -1.64711987E-02  5.13552846E+00  1.88972612E-09 -1.64711987E-02
  5.13552846E+00  1.88972612E-09 -1.64711987E-02  5.13552846E+00  1.88972612E-09
  4.41292435E+00  2.57846031E+00  0.00000000E+00  4.41292435E+00  2.57846031E+00
  0.00000000E+00  4.41292435E+00  2.57846031E+00  0.00000000E+00  4.41292435E+00
  2.57846031E+00  0.00000000E+00  4.41292435E+00  2.57846031E+00  0.00000000E+00
  4.41292435E+00  2.57846031E+00  0.00000000E+00
Num ILSW                                   I              100
ILSW                                       I   N=         100
           0           0           0           0           2           0
           0           0           0           0        1009          -1
           5           0           0           0           0           0
           0           0           0           0           0           0
           1           1           0           0           0           0
           0           0      100000           0          -1           0
           0           0           0           0           0           0
           0           0           0           1           0           0
           0 -2000000000           1           0           0           0
           0           0           4          52           0           0
           0           0          13           0           0           0
           0           0           0          12           0           1
           0           0           0           0           0           0
           0           0           0           0           0           0
           0           0           0           0           0           0
           0           0           0           0           0           0
           0           0           0           0
Num RLSW                                   I               52
RLSW                                       R   N=          52
  7.50000000E-01  7.50000000E-01  1.00000000E+00  1.00000000E+00  2.50000000E-01
  0.00000000E+00  0.00000000E+00  1.00000000E+00  0.00000000E+00  0.00000000E+00
  0.00000000E+00  0.00000000E+00  1.00000000E+00  0.00000000E+00  0.00000000E+00
  0.00000000E+00  0.00000000E+00  1.00000000E+00  0.00000000E+00  0.00000000E+00
  0.00000000E+00  0.00000000E+00  1.00000000E+00  0.00000000E+00  0.00000000E+00
  0.00000000E+00  0.00000000E+00  1.00000000E+00  0.00000000E+00  0.00000000E+00
  0.00000000E+00  0.00000000E+00  1.00000000E+00  0.00000000E+00  0.00000000E+00
  0.00000000E+00  0.00000000E+00  0.00000000E+00  1.00000000E+00  1.00000000E+00
  0.00000000E+00  1.00000000E+00  0.00000000E+00  0.00000000E+00  0.00000000E+00
  0.00000000E+00  0.00000000E+00  0.00000000E+00  0.00000000E+00  0.00000000E+00
  0.00000000E+00  0.00000000E+00
MxBond                                     I                3
NBond                                      I   N=          12
           3           3           3           3           3           3
           1           1           1           1           1           1
IBond                                      I   N=          36
           2           6          12           1           3           7
           2           4           8           3           5           9
           4           6          10           1           5          11
           2           0           0           3           0           0
           4           0           0           5           0           0
           6           0           0           1           0           0
RBond                                      R   N=          36
  1.50000000E+00  1.50000000E+00  1.00000000E+00  1.50000000E+00  1.50000000E+00
  1.00000000E+00  1.50000000E+00  1.50000000E+00  1.00000000E+00  1.50000000E+00
  1.50000000E+00  1.00000000E+00  1.50000000E+00  1.50000000E+00  1.00000000E+00
  1.50000000E+00  1.50000000E+00  1.00000000E+00  1.00000000E+00  0.00000000E+00
  0.00000000E+00  1.00000000E+00  0.00000000E+00  0.00000000E+00  1.00000000E+00
  0.00000000E+00  0.00000000E+00  1.00000000E+00  0.00000000E+00  0.00000000E+00
  1.00000000E+00  0.00000000E+00  0.00000000E+00  1.00000000E+00  0.00000000E+00
  0.00000000E+00
Virial Ratio                               R      2.002602495307300E+00
SCF Energy                                 R     -7.278820939944721E+02
Total Energy                               R     -7.278820939944721E+02
RMS Density                                R      4.868899098873932E-09
Job Status                                 I                1
Nuclear derivative order                   I                0
External E-field                           R   N=          35
  0.00000000E+00  0.00000000E+00  0.00000000E+00  0.00000000E+00  0.00000000E+00
  0.00000000E+00  0.00000000E+00  0.00000000E+00  0.00000000E+00  0.00000000E+00
  0.00000000E+00  0.00000000E+00  0.00000000E+00  0.00000000E+00  0.00000000E+00
  0.00000000E+00  0.00000000E+00  0.00000000E+00  0.00000000E+00  0.00000000E+00
  0.00000000E+00  0.00000000E+00  0.00000000E+00  0.00000000E+00  0.00000000E+00
  0.00000000E+00  0.00000000E+00  0.00000000E+00  0.00000000E+00  0.00000000E+00
  0.00000000E+00  0.00000000E+00  0.00000000E+00  0.00000000E+00  0.00000000E+00
IOpCl                                      I                0
IROHF                                      I                0
Alpha Orbital Energies                     R   N=         249
 -2.48281626E+01 -2.48239615E+01 -2.48239370E+01 -2.48207874E+01 -2.48207767E+01
 -1.03637599E+01 -1.03590707E+01 -1.03590618E+01 -1.03567695E+01 -1.03567265E+01
 -1.02782610E+01 -1.32462714E+00 -1.31606730E+00 -1.31050406E+00 -1.30204006E+00
 -1.29951036E+00 -9.51119554E-01 -8.33344849E-01 -8.25960081E-01 -7.16681928E-01
 -7.07035380E-01 -6.41693039E-01 -6.32923448E-01 -6.21921656E-01 -5.88673020E-01
 -5.82801434E-01 -5.65747639E-01 -5.57784035E-01 -5.37306510E-01 -5.26884009E-01
 -5.14194339E-01 -5.08439353E-01 -5.04533206E-01 -4.83226769E-01 -4.80136623E-01
 -4.51990813E-01 -4.34076036E-01 -4.19528781E-01 -3.93666485E-01 -3.00969256E-01
 -2.87945403E-01 -4.38455998E-02 -2.98538925E-02 -2.94484727E-02  7.86867786E-03
  2.06316325E-02  4.89781882E-02  5.18777639E-02  6.35618601E-02  6.66516755E-02
  8.02444651E-02  8.62079929E-02  9.20337655E-02  9.53494530E-02  1.13422576E-01
  1.21642890E-01  1.23630869E-01  1.27308902E-01  1.28407169E-01  1.32193391E-01
  1.46529007E-01  1.50347898E-01  1.61178816E-01  1.61472589E-01  1.72058480E-01
  1.74652782E-01  1.87760834E-01  1.91298927E-01  2.02963919E-01  2.07418544E-01
  2.28052106E-01  2.49226951E-01  2.50722379E-01  2.63750749E-01  2.69894358E-01
  2.74054681E-01  2.97377762E-01  3.13898646E-01  3.23449926E-01  3.30137490E-01
  3.33615022E-01  3.39763210E-01  3.48528797E-01  3.53952207E-01  3.54062123E-01
  3.78988621E-01  3.83307896E-01  3.92172693E-01  3.93794499E-01  3.94901868E-01
  4.14092596E-01  4.17672096E-01  4.19385688E-01  4.33009646E-01  4.36929441E-01
  4.81679973E-01  5.04829522E-01  5.15808097E-01  5.20518542E-01  5.31101733E-01
  5.34404251E-01  5.54127972E-01  5.54576003E-01  5.62273005E-01  5.73362483E-01
  6.05698726E-01  6.21653306E-01  6.27886842E-01  6.89752678E-01  7.05804194E-01
  7.16135956E-01  7.28738710E-01  7.44273074E-01  7.70466565E-01  8.14409352E-01
  8.23110762E-01  8.64623021E-01  9.05345226E-01  9.08832834E-01  9.25872256E-01
  9.50240038E-01  9.51202876E-01  9.77595983E-01  1.01224901E+00  1.04209524E+00
  1.05695067E+00  1.07572030E+00  1.09679237E+00  1.13154539E+00  1.15382527E+00
  1.17339868E+00  1.24724031E+00  1.28799543E+00  1.36513786E+00  1.39601859E+00
  1.40200919E+00  1.41705795E+00  1.42126492E+00  1.42410930E+00  1.43568959E+00
  1.43788502E+00  1.44326793E+00  1.44945293E+00  1.47513982E+00  1.51960218E+00
  1.52617536E+00  1.53448761E+00  1.54050172E+00  1.54139432E+00  1.57393755E+00
  1.57975788E+00  1.58678382E+00  1.63179122E+00  1.71570616E+00  1.72578300E+00
  1.75569751E+00  1.79156179E+00  1.81639707E+00  1.81943132E+00  1.84180298E+00
  1.84803470E+00  1.93692010E+00  1.94879522E+00  2.00389430E+00  2.00975794E+00
  2.02750494E+00  2.07433742E+00  2.07493570E+00  2.13472045E+00  2.17342425E+00
  2.20316793E+00  2.20991715E+00  2.25280100E+00  2.27580112E+00  2.38563873E+00
  2.39755156E+00  2.56724300E+00  2.57041838E+00  2.66046974E+00  2.68550653E+00
  2.71348614E+00  2.72287601E+00  2.82292451E+00  2.84237831E+00  3.06209249E+00
  3.06298641E+00  3.10869340E+00  3.12166195E+00  3.14379887E+00  3.19694267E+00
  3.23220682E+00  3.36178397E+00  3.43926476E+00  3.61418355E+00  3.72668727E+00
  3.73452773E+00  3.75208953E+00  3.76306974E+00  3.76667578E+00  3.77081376E+00
  3.77327738E+00  3.78249291E+00  3.83090720E+00  3.83323170E+00  3.86670430E+00
  3.93596851E+00  3.94995174E+00  3.96243826E+00  3.98147514E+00  3.98674222E+00
  4.00958041E+00  4.04504062E+00  4.05965907E+00  4.07487975E+00  4.13672834E+00
  4.18926412E+00  4.23347197E+00  4.69718944E+00  4.82192322E+00  4.87871513E+00
  4.88074236E+00  4.94170657E+00  4.99895774E+00  6.29301709E+00  6.32673677E+00
  6.33797089E+00  6.35815294E+00  6.38255766E+00  6.39236476E+00  6.43899172E+00
  6.46768340E+00  6.49400734E+00  6.56677303E+00  6.57491623E+00  6.77244422E+00
  6.81809608E+00  6.86144487E+00  6.92807077E+00  2.34726341E+01  2.39022616E+01
  2.39365338E+01  2.40783034E+01  2.41076377E+01  2.42287776E+01  6.68757743E+01
  6.69077713E+01  6.69244044E+01  6.69428661E+01  6.69893335E+01
Alpha MO coefficients                      R   N=       62001
 -7.17399122E-07  2.58264149E-06 -5.45663221E-05  6.32956025E-06  2.03683319E-13
  1.29921627E-04  2.84064320E-04 -6.54468591E-05 -7.76592376E-13 -9.21502187E-03
  4.38076986E-03  1.19407701E-03  4.65595550E-12  1.47144280E-03 -1.94289969E-04
  1.01948499E-03  6.37205794E-12  3.44130135E-05 -5.73652111E-13 -7.33370661E-13
 -7.43261641E-05  3.81624825E-05 -4.90955006E-06  1.95447680E-05  5.87914452E-06
 -3.38297840E-06  2.92060882E-13 -2.09240460E-04 -1.40199018E-05  8.01911644E-06
 -1.08601007E-12  5.42808794E-03 -3.30057553E-03  1.90300600E-03  2.80729178E-13
  3.12561694E-03 -1.62917070E-03  9.32345419E-04 -6.38286455E-12 -1.67465082E-05