 Entering Gaussian System, Link 0=g16
 Initial command:
 /sw/cluster/pub/apps//g16/l1.exe "/data/natrosa/28466/Gau-7333.inp" -scrdir="/data/natrosa/28466/"
 Entering Link 1 = /sw/cluster/pub/apps//g16/l1.exe PID=      7334.
  
 Copyright (c) 1988,1990,1992,1993,1995,1998,2003,2009,2016,
            Gaussian, Inc.  All Rights Reserved.
  
 This is part of the Gaussian(R) 16 program.  It is based on
 the Gaussian(R) 09 system (copyright 2009, Gaussian, Inc.),
 the Gaussian(R) 03 system (copyright 2003, Gaussian, Inc.),
 the Gaussian(R) 98 system (copyright 1998, Gaussian, Inc.),
 the Gaussian(R) 94 system (copyright 1995, Gaussian, Inc.),
 the Gaussian 92(TM) system (copyright 1992, Gaussian, Inc.),
 the Gaussian 90(TM) system (copyright 1990, Gaussian, Inc.),
 the Gaussian 88(TM) system (copyright 1988, Gaussian, Inc.),
 the Gaussian 86(TM) system (copyright 1986, Carnegie Mellon
 University), and the Gaussian 82(TM) system (copyright 1983,
 Carnegie Mellon University). Gaussian is a federally registered
 trademark of Gaussian, Inc.
  
 This software contains proprietary and confidential information,
 including trade secrets, belonging to Gaussian, Inc.
  
 This software is provided under written license and may be
 used, copied, transmitted, or stored only in accord with that
 written license.
  
 The following legend is applicable only to US Government
 contracts under FAR:
  
                    RESTRICTED RIGHTS LEGEND
  
 Use, reproduction and disclosure by the US Government is
 subject to restrictions as set forth in subparagraphs (a)
 and (c) of the Commercial Computer Software - Restricted
 Rights clause in FAR 52.227-19.
  
 Gaussian, Inc.
 340 Quinnipiac St., Bldg. 40, Wallingford CT 06492
  
  
 ---------------------------------------------------------------
 Warning -- This program may not be used in any manner that
 competes with the business of Gaussian, Inc. or will provide
 assistance to any competitor of Gaussian, Inc.  The licensee
 of this program is prohibited from giving any competitor of
 Gaussian, Inc. access to this program.  By using this program,
 the user acknowledges that Gaussian, Inc. is engaged in the
 business of creating and licensing software in the field of
 computational chemistry and represents and warrants to the
 licensee that it is not a competitor of Gaussian, Inc. and that
 it will not use this program in any manner prohibited above.
 ---------------------------------------------------------------
  

 Cite this work as:
 Gaussian 16, Revision A.03,
 M. J. Frisch, G. W. Trucks, H. B. Schlegel, G. E. Scuseria, 
 M. A. Robb, J. R. Cheeseman, G. Scalmani, V. Barone, 
 G. A. Petersson, H. Nakatsuji, X. Li, M. Caricato, A. V. Marenich, 
 J. Bloino, B. G. Janesko, R. Gomperts, B. Mennucci, H. P. Hratchian, 
 J. V. Ortiz, A. F. Izmaylov, J. L. Sonnenberg, D. Williams-Young, 
 F. Ding, F. Lipparini, F. Egidi, J. Goings, B. Peng, A. Petrone, 
 T. Henderson, D. Ranasinghe, V. G. Zakrzewski, J. Gao, N. Rega, 
 G. Zheng, W. Liang, M. Hada, M. Ehara, K. Toyota, R. Fukuda, 
 J. Hasegawa, M. Ishida, T. Nakajima, Y. Honda, O. Kitao, H. Nakai, 
 T. Vreven, K. Throssell, J. A. Montgomery, Jr., J. E. Peralta, 
 F. Ogliaro, M. J. Bearpark, J. J. Heyd, E. N. Brothers, K. N. Kudin, 
 V. N. Staroverov, T. A. Keith, R. Kobayashi, J. Normand, 
 K. Raghavachari, A. P. Rendell, J. C. Burant, S. S. Iyengar, 
 J. Tomasi, M. Cossi, J. M. Millam, M. Klene, C. Adamo, R. Cammi, 
 J. W. Ochterski, R. L. Martin, K. Morokuma, O. Farkas, 
 J. B. Foresman, and D. J. Fox, Gaussian, Inc., Wallingford CT, 2016.
 
 ******************************************
 Gaussian 16:  ES64L-G16RevA.03 25-Dec-2016
                29-Jan-2025 
 ******************************************
 %chk=1-2-3-TFB-ANI.chk
 --------------------------------------------------------
 #p opt freq PBE1PBE/6-311++G(d,p) density=current nosymm
 --------------------------------------------------------
 1/18=20,19=15,26=3,38=1/1,3;
 2/9=110,12=2,15=1,17=6,18=5,40=1/2;
 3/5=4,6=6,7=1111,11=2,25=1,30=1,71=1,74=-13/1,2,3;
 4//1;
 5/5=2,38=5/2;
 6/7=2,8=2,9=2,10=2,22=-1,28=1/1;
 7/30=1/1,2,3,16;
 1/18=20,19=15,26=3/3(2);
 2/9=110,15=1/2;
 99//99;
 2/9=110,15=1/2;
 3/5=4,6=6,7=1111,11=2,25=1,30=1,71=1,74=-13/1,2,3;
 4/5=5,16=3,69=1/1;
 5/5=2,38=5/2;
 7/30=1/1,2,3,16;
 1/18=20,19=15,26=3/3(-5);
 2/9=110,15=1/2;
 6/7=2,8=2,9=2,10=2,19=2,22=-1,28=1/1;
 99/9=1/99;
 Leave Link    1 at Wed Jan 29 15:51:15 2025, MaxMem=           0 cpu:               0.0 elap:               0.0
 (Enter /sw/cluster/pub/apps//g16/l101.exe)
 ------------
 1 2 3-TFB SP
 ------------
 Symbolic Z-matrix:
 Charge = -1 Multiplicity = 2
 C                     1.19504   0.68999   0. 
 C                     1.20556  -0.69947   0. 
 C                     0.00134  -1.37889   0. 
 C                    -1.20733  -0.69714   0. 
 C                    -1.19327   0.69054   0. 
 C                    -0.00294   1.3939    0. 
 H                     2.13357   1.23181   0. 
 H                     2.12876  -1.26631   0. 
 H                    -0.03233   2.47682   0. 
 F                    -0.02448  -2.71172   0. 
 F                    -2.35742  -1.36064   0. 
 F                    -2.36062   1.33428   0. 
 
 ITRead=  0  0  0  0  0  0  0  0  0  0  0  0
 MicOpt= -1 -1 -1 -1 -1 -1 -1 -1 -1 -1 -1 -1
 NAtoms=     12 NQM=       12 NQMF=       0 NMMI=      0 NMMIF=      0
                NMic=       0 NMicF=      0.
                    Isotopes and Nuclear Properties:
 (Nuclear quadrupole moments (NQMom) in fm**2, nuclear magnetic moments (NMagM)
  in nuclear magnetons)

  Atom         1           2           3           4           5           6           7           8           9          10
 IAtWgt=          12          12          12          12          12          12           1           1           1          19
 AtmWgt=  12.0000000  12.0000000  12.0000000  12.0000000  12.0000000  12.0000000   1.0078250   1.0078250   1.0078250  18.9984032
 NucSpn=           0           0           0           0           0           0           1           1           1           1
 AtZEff=  -0.0000000  -0.0000000  -0.0000000  -0.0000000  -0.0000000  -0.0000000  -0.0000000  -0.0000000  -0.0000000  -0.0000000
 NQMom=    0.0000000   0.0000000   0.0000000   0.0000000   0.0000000   0.0000000   0.0000000   0.0000000   0.0000000   0.0000000
 NMagM=    0.0000000   0.0000000   0.0000000   0.0000000   0.0000000   0.0000000   2.7928460   2.7928460   2.7928460   2.6288670
 AtZNuc=   6.0000000   6.0000000   6.0000000   6.0000000   6.0000000   6.0000000   1.0000000   1.0000000   1.0000000   9.0000000

  Atom        11          12
 IAtWgt=          19          19
 AtmWgt=  18.9984032  18.9984032
 NucSpn=           1           1
 AtZEff=  -0.0000000  -0.0000000
 NQMom=    0.0000000   0.0000000
 NMagM=    2.6288670   2.6288670
 AtZNuc=   9.0000000   9.0000000
 Leave Link  101 at Wed Jan 29 15:51:15 2025, MaxMem=   104857600 cpu:               0.0 elap:               0.0
 (Enter /sw/cluster/pub/apps//g16/l103.exe)

 GradGradGradGradGradGradGradGradGradGradGradGradGradGradGradGradGradGrad
 Berny optimization.
 Initialization pass.
                           ----------------------------
                           !    Initial Parameters    !
                           ! (Angstroms and Degrees)  !
 --------------------------                            --------------------------
 ! Name  Definition              Value          Derivative Info.                !
 --------------------------------------------------------------------------------
 ! R1    R(1,2)                  1.3895         estimate D2E/DX2                !
 ! R2    R(1,6)                  1.3895         estimate D2E/DX2                !
 ! R3    R(1,7)                  1.0837         estimate D2E/DX2                !
 ! R4    R(2,3)                  1.3827         estimate D2E/DX2                !
 ! R5    R(2,8)                  1.0833         estimate D2E/DX2                !
 ! R6    R(3,4)                  1.3877         estimate D2E/DX2                !
 ! R7    R(3,10)                 1.3331         estimate D2E/DX2                !
 ! R8    R(4,5)                  1.3878         estimate D2E/DX2                !
 ! R9    R(4,11)                 1.3278         estimate D2E/DX2                !
 ! R10   R(5,6)                  1.3826         estimate D2E/DX2                !
 ! R11   R(5,12)                 1.3331         estimate D2E/DX2                !
 ! R12   R(6,9)                  1.0833         estimate D2E/DX2                !
 ! A1    A(2,1,6)              120.8714         estimate D2E/DX2                !
 ! A2    A(2,1,7)              119.5643         estimate D2E/DX2                !
 ! A3    A(6,1,7)              119.5643         estimate D2E/DX2                !
 ! A4    A(1,2,3)              118.9982         estimate D2E/DX2                !
 ! A5    A(1,2,8)              121.9836         estimate D2E/DX2                !
 ! A6    A(3,2,8)              119.0182         estimate D2E/DX2                !
 ! A7    A(2,3,4)              121.1429         estimate D2E/DX2                !
 ! A8    A(2,3,10)             120.542          estimate D2E/DX2                !
 ! A9    A(4,3,10)             118.3151         estimate D2E/DX2                !
 ! A10   A(3,4,5)              118.8446         estimate D2E/DX2                !
 ! A11   A(3,4,11)             120.5936         estimate D2E/DX2                !
 ! A12   A(5,4,11)             120.5618         estimate D2E/DX2                !
 ! A13   A(4,5,6)              121.1591         estimate D2E/DX2                !
 ! A14   A(4,5,12)             118.2941         estimate D2E/DX2                !
 ! A15   A(6,5,12)             120.5469         estimate D2E/DX2                !
 ! A16   A(1,6,5)              118.9838         estimate D2E/DX2                !
 ! A17   A(1,6,9)              121.9925         estimate D2E/DX2                !
 ! A18   A(5,6,9)              119.0236         estimate D2E/DX2                !
 ! D1    D(6,1,2,3)              0.0            estimate D2E/DX2                !
 ! D2    D(6,1,2,8)            180.0            estimate D2E/DX2                !
 ! D3    D(7,1,2,3)            180.0            estimate D2E/DX2                !
 ! D4    D(7,1,2,8)              0.0            estimate D2E/DX2                !
 ! D5    D(2,1,6,5)              0.0            estimate D2E/DX2                !
 ! D6    D(2,1,6,9)            180.0            estimate D2E/DX2                !
 ! D7    D(7,1,6,5)            180.0            estimate D2E/DX2                !
 ! D8    D(7,1,6,9)              0.0            estimate D2E/DX2                !
 ! D9    D(1,2,3,4)              0.0            estimate D2E/DX2                !
 ! D10   D(1,2,3,10)           180.0            estimate D2E/DX2                !
 ! D11   D(8,2,3,4)            180.0            estimate D2E/DX2                !
 ! D12   D(8,2,3,10)             0.0            estimate D2E/DX2                !
 ! D13   D(2,3,4,5)              0.0            estimate D2E/DX2                !
 ! D14   D(2,3,4,11)           180.0            estimate D2E/DX2                !
 ! D15   D(10,3,4,5)           180.0            estimate D2E/DX2                !
 ! D16   D(10,3,4,11)            0.0            estimate D2E/DX2                !
 ! D17   D(3,4,5,6)              0.0            estimate D2E/DX2                !
 ! D18   D(3,4,5,12)           180.0            estimate D2E/DX2                !
 ! D19   D(11,4,5,6)           180.0            estimate D2E/DX2                !
 ! D20   D(11,4,5,12)            0.0            estimate D2E/DX2                !
 ! D21   D(4,5,6,1)              0.0            estimate D2E/DX2                !
 ! D22   D(4,5,6,9)            180.0            estimate D2E/DX2                !
 ! D23   D(12,5,6,1)           180.0            estimate D2E/DX2                !
 ! D24   D(12,5,6,9)             0.0            estimate D2E/DX2                !
 --------------------------------------------------------------------------------
 Trust Radius=3.00D-01 FncErr=1.00D-07 GrdErr=1.00D-06 EigMax=2.50D+02 EigMin=1.00D-04
 Number of steps in this run=     64 maximum allowed number of steps=    100.
 GradGradGradGradGradGradGradGradGradGradGradGradGradGradGradGradGradGrad

 Leave Link  103 at Wed Jan 29 15:51:15 2025, MaxMem=   104857600 cpu:               0.0 elap:               0.0
 (Enter /sw/cluster/pub/apps//g16/l202.exe)
                          Input orientation:                          
 ---------------------------------------------------------------------
 Center     Atomic      Atomic             Coordinates (Angstroms)
 Number     Number       Type             X           Y           Z
 ---------------------------------------------------------------------
      1          6           0        1.195040    0.689993    0.000000
      2          6           0        1.205558   -0.699469    0.000000
      3          6           0        0.001345   -1.378893    0.000000
      4          6           0       -1.207333   -0.697138    0.000000
      5          6           0       -1.193271    0.690543    0.000000
      6          6           0       -0.002939    1.393901    0.000000
      7          1           0        2.133568    1.231809    0.000000
      8          1           0        2.128758   -1.266312    0.000000
      9          1           0       -0.032335    2.476818    0.000000
     10          9           0       -0.024482   -2.711724    0.000000
     11          9           0       -2.357420   -1.360639    0.000000
     12          9           0       -2.360620    1.334279    0.000000
 ---------------------------------------------------------------------
                    Distance matrix (angstroms):
                    1          2          3          4          5
     1  C    0.000000
     2  C    1.389502   0.000000
     3  C    2.388555   1.382660   0.000000
     4  C    2.774081   2.412892   1.387693   0.000000
     5  C    2.388311   2.772457   2.389492   1.387752   0.000000
     6  C    1.389475   2.417161   2.772798   2.413091   1.382608
     7  H    1.083697   2.142671   3.370777   3.857778   3.370582
     8  H    2.167708   1.083332   2.130390   3.384296   3.855536
     9  H    2.167762   3.408985   3.855858   3.384468   2.130388
    10  F    3.613711   2.358425   1.333081   2.336170   3.597428
    11  F    4.101836   3.623805   2.358835   1.327755   2.358514
    12  F    3.613560   4.105333   3.597246   2.335964   1.333079
                    6          7          8          9         10
     6  C    0.000000
     7  H    2.142647   0.000000
     8  H    3.408939   2.498125   0.000000
     9  H    1.083316   2.498235   4.322192   0.000000
    10  F    4.105681   4.495401   2.593387   5.188548   0.000000
    11  F    3.623682   5.185533   4.487169   4.486881   2.695928
    12  F    2.358434   4.495355   5.188216   2.593512   4.672010
                   11         12
    11  F    0.000000
    12  F    2.694920   0.000000
 Symmetry turned off by external request.
 Stoichiometry    C6H3F3(1-,2)
 Framework group  CS[SG(C6H3F3)]
 Deg. of freedom    21
 Full point group                 CS      NOp   2
 Rotational constants (GHZ):           2.3337685           1.7666065           1.0054813
 Leave Link  202 at Wed Jan 29 15:51:15 2025, MaxMem=   104857600 cpu:               0.0 elap:               0.0
 (Enter /sw/cluster/pub/apps//g16/l301.exe)
 Standard basis: 6-311++G(d,p) (5D, 7F)
 Ernie: Thresh=  0.10000D-02 Tol=  0.10000D-05 Strict=F.
   219 basis functions,   351 primitive gaussians,   228 cartesian basis functions
    34 alpha electrons       33 beta electrons
       nuclear repulsion energy       434.2718819530 Hartrees.
 IExCor= 1009 DFT=T Ex+Corr=PBE1PBE ExCW=0 ScaHFX=  0.250000
 ScaDFX=  0.750000  0.750000  1.000000  1.000000 ScalE2=  1.000000  1.000000
 IRadAn=      5 IRanWt=     -1 IRanGd=            0 ICorTp=0 IEmpDi=  4
 NAtoms=   12 NActive=   12 NUniq=   12 SFac= 1.00D+00 NAtFMM=   60 NAOKFM=F Big=F
 Integral buffers will be    131072 words long.
 Raffenetti 2 integral format.
 Two-electron integral symmetry is turned off.
 Leave Link  301 at Wed Jan 29 15:51:15 2025, MaxMem=   104857600 cpu:               0.0 elap:               0.0
 (Enter /sw/cluster/pub/apps//g16/l302.exe)
 NPDir=0 NMtPBC=     1 NCelOv=     1 NCel=       1 NClECP=     1 NCelD=      1
         NCelK=      1 NCelE2=     1 NClLst=     1 CellRange=     0.0.
 One-electron integrals computed using PRISM.
 NBasis=   219 RedAO= T EigKep=  1.88D-06  NBF=   219
 NBsUse=   219 1.00D-06 EigRej= -1.00D+00 NBFU=   219
 Precomputing XC quadrature grid using
 IXCGrd= 4 IRadAn=           5 IRanWt=          -1 IRanGd=           0 AccXCQ= 0.00D+00.
 Generated NRdTot=       0 NPtTot=           0 NUsed=           0 NTot=          32
 NSgBfM=   228   228   228   228   228 MxSgAt=    12 MxSgA2=    12.
 Leave Link  302 at Wed Jan 29 15:51:15 2025, MaxMem=   104857600 cpu:               0.1 elap:               0.2
 (Enter /sw/cluster/pub/apps//g16/l303.exe)
 DipDrv:  MaxL=1.
 Leave Link  303 at Wed Jan 29 15:51:16 2025, MaxMem=   104857600 cpu:               0.0 elap:               0.0
 (Enter /sw/cluster/pub/apps//g16/l401.exe)
 ExpMin= 3.60D-02 ExpMax= 1.14D+04 ExpMxC= 1.72D+03 IAcc=3 IRadAn=         5 AccDes= 0.00D+00
 Harris functional with IExCor= 1009 and IRadAn=       5 diagonalized for initial guess.
 HarFok:  IExCor= 1009 AccDes= 0.00D+00 IRadAn=         5 IDoV= 1 UseB2=F ITyADJ=14
 ICtDFT=  3500011 ScaDFX=  1.000000  1.000000  1.000000  1.000000
 FoFCou: FMM=F IPFlag=           0 FMFlag=      100000 FMFlg1=           0
         NFxFlg=           0 DoJE=T BraDBF=F KetDBF=T FulRan=T
         wScrn=  0.000000 ICntrl=       500 IOpCl=  0 I1Cent=   200000004 NGrid=           0
         NMat0=    1 NMatS0=      1 NMatT0=    0 NMatD0=    1 NMtDS0=    0 NMtDT0=    0
 Symmetry not used in FoFCou.
 Harris En= -529.734295732896    
 JPrj=0 DoOrth=F DoCkMO=F.
 Initial guess <Sx>= 0.0000 <Sy>= 0.0000 <Sz>= 0.5000 <S**2>= 0.7500 S= 0.5000
 Leave Link  401 at Wed Jan 29 15:51:17 2025, MaxMem=   104857600 cpu:               1.6 elap:               1.6
 (Enter /sw/cluster/pub/apps//g16/l502.exe)
 Two-electron integral symmetry not used.
 UHF open shell SCF:
 Using DIIS extrapolation, IDIIS=  1040.
 NGot=   104857600 LenX=   104750604 LenY=   104698179
 Requested convergence on RMS density matrix=1.00D-08 within 128 cycles.
 Requested convergence on MAX density matrix=1.00D-06.
 Requested convergence on             energy=1.00D-06.
 No special actions if energy rises.
 Fock matrices will be formed incrementally for  20 cycles.

 Cycle   1  Pass 1  IDiag  1:
 FoFJK:  IHMeth= 1 ICntrl=       0 DoSepK=F KAlg= 0 I1Cent=           0 FoldK=F
 IRaf= 950000000 NMat=       1 IRICut=       1 DoRegI=T DoRafI=F ISym2E= 0 IDoP0=0 IntGTp=1.
 FoFCou: FMM=F IPFlag=           0 FMFlag=      100000 FMFlg1=           0
         NFxFlg=           0 DoJE=F BraDBF=F KetDBF=F FulRan=T
         wScrn=  0.000000 ICntrl=         0 IOpCl=  1 I1Cent=           0 NGrid=           0
         NMat0=    1 NMatS0=      1 NMatT0=    0 NMatD0=    1 NMtDS0=    0 NMtDT0=    0
 Symmetry not used in FoFCou.
 E= -529.219874779851    
 DIIS: error= 3.97D-02 at cycle   1 NSaved=   1.
 NSaved= 1 IEnMin= 1 EnMin= -529.219874779851     IErMin= 1 ErrMin= 3.97D-02
 ErrMax= 3.97D-02  0.00D+00 EMaxC= 1.00D-01 BMatC= 1.14D+00 BMatP= 1.14D+00
 IDIUse=3 WtCom= 6.03D-01 WtEn= 3.97D-01
 Coeff-Com:  0.100D+01
 Coeff-En:   0.100D+01
 Coeff:      0.100D+01
 Gap=    -0.004 Goal=   None    Shift=    0.000
 Gap=     0.363 Goal=   None    Shift=    0.000
 GapD=   -0.004 DampG=0.250 DampE=0.500 DampFc=0.2500 IDamp=-1.
 Damping current iteration by 2.50D-01
 RMSDP=1.60D+01 MaxDP=1.37D+03              OVMax= 9.96D-01

 Cycle   2  Pass 1  IDiag  1:
 RMSU=  3.94D+00    CP:  3.00D+00
 E= -529.333302275973     Delta-E=       -0.113427496122 Rises=F Damp=T
 DIIS: error= 1.55D-02 at cycle   2 NSaved=   2.
 NSaved= 2 IEnMin= 2 EnMin= -529.333302275973     IErMin= 2 ErrMin= 1.55D-02
 ErrMax= 1.55D-02  0.00D+00 EMaxC= 1.00D-01 BMatC= 2.31D-01 BMatP= 1.14D+00
 IDIUse=3 WtCom= 8.45D-01 WtEn= 1.55D-01
 Coeff-Com: -0.553D+00 0.155D+01
 Coeff-En:   0.000D+00 0.100D+01
 Coeff:     -0.468D+00 0.147D+01
 Gap=     0.003 Goal=   None    Shift=    0.000
 Gap=     0.202 Goal=   None    Shift=    0.000
 RMSDP=2.33D+00 MaxDP=2.86D+02 DE=-1.13D-01 OVMax= 4.10D-01

 Cycle   3  Pass 1  IDiag  1:
 RMSU=  9.01D-01    CP:  3.00D+00  1.54D+00
 E= -529.497222901825     Delta-E=       -0.163920625852 Rises=F Damp=F
 DIIS: error= 1.28D-02 at cycle   3 NSaved=   3.
 NSaved= 3 IEnMin= 3 EnMin= -529.497222901825     IErMin= 3 ErrMin= 1.28D-02
 ErrMax= 1.28D-02  0.00D+00 EMaxC= 1.00D-01 BMatC= 9.08D-02 BMatP= 2.31D-01
 IDIUse=3 WtCom= 8.72D-01 WtEn= 1.28D-01
 Coeff-Com: -0.208D+00 0.685D+00 0.523D+00
 Coeff-En:   0.000D+00 0.000D+00 0.100D+01
 Coeff:     -0.181D+00 0.598D+00 0.584D+00
 Gap=     0.019 Goal=   None    Shift=    0.000
 Gap=     0.258 Goal=   None    Shift=    0.000
 RMSDP=8.82D-01 MaxDP=1.01D+02 DE=-1.64D-01 OVMax= 8.90D-02

 Cycle   4  Pass 1  IDiag  1:
 RMSU=  1.84D-01    CP:  3.00D+00  1.33D+00  8.74D-01
 E= -529.518763451071     Delta-E=       -0.021540549246 Rises=F Damp=F
 DIIS: error= 6.35D-03 at cycle   4 NSaved=   4.
 NSaved= 4 IEnMin= 4 EnMin= -529.518763451071     IErMin= 4 ErrMin= 6.35D-03
 ErrMax= 6.35D-03  0.00D+00 EMaxC= 1.00D-01 BMatC= 1.52D-02 BMatP= 9.08D-02
 IDIUse=3 WtCom= 9.37D-01 WtEn= 6.35D-02
 Coeff-Com:  0.555D-01-0.102D-01 0.266D+00 0.689D+00
 Coeff-En:   0.000D+00 0.000D+00 0.000D+00 0.100D+01
 Coeff:      0.520D-01-0.952D-02 0.249D+00 0.709D+00
 Gap=     0.031 Goal=   None    Shift=    0.000
 Gap=     0.261 Goal=   None    Shift=    0.000
 RMSDP=2.43D+00 MaxDP=2.18D+02 DE=-2.15D-02 OVMax= 1.19D-01

 Cycle   5  Pass 1  IDiag  1:
 RMSU=  7.68D-02    CP:  3.00D+00  7.13D-01  7.76D-01  1.26D+00
 E= -529.523599998692     Delta-E=       -0.004836547620 Rises=F Damp=F
 DIIS: error= 2.33D-03 at cycle   5 NSaved=   5.
 NSaved= 5 IEnMin= 5 EnMin= -529.523599998692     IErMin= 5 ErrMin= 2.33D-03
 ErrMax= 2.33D-03  0.00D+00 EMaxC= 1.00D-01 BMatC= 1.53D-03 BMatP= 1.52D-02
 IDIUse=3 WtCom= 9.77D-01 WtEn= 2.33D-02
 Coeff-Com:  0.254D-01-0.347D-01 0.538D-01 0.293D+00 0.662D+00
 Coeff-En:   0.000D+00 0.000D+00 0.000D+00 0.000D+00 0.100D+01
 Coeff:      0.248D-01-0.339D-01 0.525D-01 0.287D+00 0.670D+00
 Gap=     0.029 Goal=   None    Shift=    0.000
 Gap=     0.257 Goal=   None    Shift=    0.000
 RMSDP=7.46D-01 MaxDP=7.11D+01 DE=-4.84D-03 OVMax= 3.91D-02

 Cycle   6  Pass 1  IDiag  1:
 RMSU=  1.60D-02    CP:  3.00D+00  5.24D-01  7.13D-01  1.32D+00  1.25D+00
 E= -529.524205768411     Delta-E=       -0.000605769719 Rises=F Damp=F
 DIIS: error= 9.07D-04 at cycle   6 NSaved=   6.
 NSaved= 6 IEnMin= 6 EnMin= -529.524205768411     IErMin= 6 ErrMin= 9.07D-04
 ErrMax= 9.07D-04  0.00D+00 EMaxC= 1.00D-01 BMatC= 4.59D-04 BMatP= 1.53D-03
 IDIUse=3 WtCom= 9.91D-01 WtEn= 9.07D-03
 Coeff-Com: -0.290D-02 0.316D-02-0.769D-02 0.364D-01 0.371D+00 0.600D+00
 Coeff-En:   0.000D+00 0.000D+00 0.000D+00 0.000D+00 0.000D+00 0.100D+01
 Coeff:     -0.288D-02 0.314D-02-0.762D-02 0.361D-01 0.367D+00 0.604D+00
 Gap=     0.030 Goal=   None    Shift=    0.000
 Gap=     0.258 Goal=   None    Shift=    0.000
 RMSDP=5.10D-01 MaxDP=4.86D+01 DE=-6.06D-04 OVMax= 3.48D-02

 Cycle   7  Pass 1  IDiag  1:
 RMSU=  4.40D-03    CP:  3.00D+00  3.95D-01  6.60D-01  1.30D+00  1.44D+00
                    CP:  1.88D+00
 E= -529.524437791299     Delta-E=       -0.000232022889 Rises=F Damp=F
 DIIS: error= 3.19D-04 at cycle   7 NSaved=   7.
 NSaved= 7 IEnMin= 7 EnMin= -529.524437791299     IErMin= 7 ErrMin= 3.19D-04
 ErrMax= 3.19D-04  0.00D+00 EMaxC= 1.00D-01 BMatC= 4.20D-05 BMatP= 4.59D-04
 IDIUse=3 WtCom= 9.97D-01 WtEn= 3.19D-03
 Coeff-Com: -0.517D-02 0.753D-02-0.535D-02-0.431D-01-0.982D-01 0.112D+00
 Coeff-Com:  0.103D+01
 Coeff-En:   0.000D+00 0.000D+00 0.000D+00 0.000D+00 0.000D+00 0.000D+00
 Coeff-En:   0.100D+01
 Coeff:     -0.515D-02 0.751D-02-0.533D-02-0.430D-01-0.979D-01 0.111D+00
 Coeff:      0.103D+01
 Gap=     0.031 Goal=   None    Shift=    0.000
 Gap=     0.258 Goal=   None    Shift=    0.000
 RMSDP=5.16D-01 MaxDP=5.03D+01 DE=-2.32D-04 OVMax= 4.11D-02

 Cycle   8  Pass 1  IDiag  1:
 RMSU=  2.17D-03    CP:  3.00D+00  2.65D-01  5.84D-01  1.23D+00  1.65D+00
                    CP:  2.99D+00  3.00D+00
 E= -529.524560722531     Delta-E=       -0.000122931232 Rises=F Damp=F
 DIIS: error= 1.32D-04 at cycle   8 NSaved=   8.
 NSaved= 8 IEnMin= 8 EnMin= -529.524560722531     IErMin= 8 ErrMin= 1.32D-04
 ErrMax= 1.32D-04  0.00D+00 EMaxC= 1.00D-01 BMatC= 1.14D-05 BMatP= 4.20D-05
 IDIUse=3 WtCom= 9.99D-01 WtEn= 1.32D-03
 Coeff-Com: -0.115D-02 0.279D-02-0.590D-03-0.194D-01-0.114D+00-0.844D-01
 Coeff-Com:  0.328D+00 0.889D+00
 Coeff-En:   0.000D+00 0.000D+00 0.000D+00 0.000D+00 0.000D+00 0.000D+00
 Coeff-En:   0.000D+00 0.100D+01
 Coeff:     -0.115D-02 0.279D-02-0.589D-03-0.194D-01-0.114D+00-0.843D-01
 Coeff:      0.327D+00 0.889D+00
 Gap=     0.032 Goal=   None    Shift=    0.000
 Gap=     0.258 Goal=   None    Shift=    0.000
 RMSDP=2.66D-01 MaxDP=2.63D+01 DE=-1.23D-04 OVMax= 2.52D-02

 Cycle   9  Pass 1  IDiag  1:
 RMSU=  1.30D-02    CP:  3.00D+00  1.99D-01  5.33D-01  1.15D+00  1.76D+00
                    CP:  3.00D+00  3.00D+00  3.00D+00
 E= -529.524599467365     Delta-E=       -0.000038744833 Rises=F Damp=F
 DIIS: error= 9.94D-05 at cycle   9 NSaved=   9.
 NSaved= 9 IEnMin= 9 EnMin= -529.524599467365     IErMin= 9 ErrMin= 9.94D-05
 ErrMax= 9.94D-05  0.00D+00 EMaxC= 1.00D-01 BMatC= 4.26D-06 BMatP= 1.14D-05
 IDIUse=1 WtCom= 1.00D+00 WtEn= 0.00D+00
 Coeff-Com:  0.745D-03-0.630D-03 0.584D-03 0.837D-03-0.362D-01-0.784D-01
 Coeff-Com: -0.119D+00 0.472D+00 0.760D+00
 Coeff:      0.745D-03-0.630D-03 0.584D-03 0.837D-03-0.362D-01-0.784D-01
 Coeff:     -0.119D+00 0.472D+00 0.760D+00
 Gap=     0.032 Goal=   None    Shift=    0.000
 Gap=     0.258 Goal=   None    Shift=    0.000
 RMSDP=1.41D-01 MaxDP=1.39D+01 DE=-3.87D-05 OVMax= 1.50D-02

 Cycle  10  Pass 1  IDiag  1:
 RMSU=  3.50D-03    CP:  3.00D+00  1.64D-01  5.01D-01  1.09D+00  1.82D+00
                    CP:  3.00D+00  3.00D+00  3.00D+00  1.65D+00
 E= -529.524611078502     Delta-E=       -0.000011611137 Rises=F Damp=F
 DIIS: error= 3.39D-05 at cycle  10 NSaved=  10.
 NSaved=10 IEnMin=10 EnMin= -529.524611078502     IErMin=10 ErrMin= 3.39D-05
 ErrMax= 3.39D-05  0.00D+00 EMaxC= 1.00D-01 BMatC= 5.09D-07 BMatP= 4.26D-06
 IDIUse=1 WtCom= 1.00D+00 WtEn= 0.00D+00
 Coeff-Com:  0.158D-03-0.516D-03 0.246D-03 0.343D-02 0.187D-01 0.542D-02
 Coeff-Com: -0.827D-01-0.131D+00 0.111D+00 0.108D+01
 Coeff:      0.158D-03-0.516D-03 0.246D-03 0.343D-02 0.187D-01 0.542D-02
 Coeff:     -0.827D-01-0.131D+00 0.111D+00 0.108D+01
 Gap=     0.033 Goal=   None    Shift=    0.000
 Gap=     0.258 Goal=   None    Shift=    0.000
 RMSDP=6.91D-02 MaxDP=6.56D+00 DE=-1.16D-05 OVMax= 8.24D-03

 Cycle  11  Pass 1  IDiag  1:
 RMSU=  1.04D-03    CP:  3.00D+00  1.47D-01  4.84D-01  1.05D+00  1.86D+00
                    CP:  3.00D+00  3.00D+00  3.00D+00  1.98D+00  1.71D+00
 E= -529.524613628410     Delta-E=       -0.000002549909 Rises=F Damp=F
 DIIS: error= 3.70D-05 at cycle  11 NSaved=  11.
 NSaved=11 IEnMin=11 EnMin= -529.524613628410     IErMin=10 ErrMin= 3.39D-05
 ErrMax= 3.70D-05  0.00D+00 EMaxC= 1.00D-01 BMatC= 2.70D-07 BMatP= 5.09D-07
 IDIUse=1 WtCom= 1.00D+00 WtEn= 0.00D+00
 Coeff-Com: -0.259D-03 0.180D-03 0.178D-03 0.133D-02 0.142D-01 0.160D-01
 Coeff-Com: -0.159D-01-0.154D+00-0.846D-01 0.566D+00 0.657D+00
 Coeff:     -0.259D-03 0.180D-03 0.178D-03 0.133D-02 0.142D-01 0.160D-01
 Coeff:     -0.159D-01-0.154D+00-0.846D-01 0.566D+00 0.657D+00
 Gap=     0.033 Goal=   None    Shift=    0.000
 Gap=     0.258 Goal=   None    Shift=    0.000
 RMSDP=1.91D-02 MaxDP=1.76D+00 DE=-2.55D-06 OVMax= 2.49D-03

 Cycle  12  Pass 1  IDiag  1:
 RMSU=  1.19D-04    CP:  3.00D+00  1.43D-01  4.80D-01  1.04D+00  1.87D+00
                    CP:  3.00D+00  3.00D+00  3.00D+00  2.07D+00  1.95D+00
                    CP:  1.43D+00
 E= -529.524613975578     Delta-E=       -0.000000347167 Rises=F Damp=F
 DIIS: error= 1.62D-05 at cycle  12 NSaved=  12.
 NSaved=12 IEnMin=12 EnMin= -529.524613975578     IErMin=12 ErrMin= 1.62D-05
 ErrMax= 1.62D-05  0.00D+00 EMaxC= 1.00D-01 BMatC= 4.97D-08 BMatP= 2.70D-07
 IDIUse=1 WtCom= 1.00D+00 WtEn= 0.00D+00
 Coeff-Com: -0.263D-03 0.440D-03 0.101D-03-0.606D-03-0.258D-02 0.361D-02
 Coeff-Com:  0.242D-01-0.108D-01-0.742D-01-0.188D+00 0.202D+00 0.105D+01
 Coeff:     -0.263D-03 0.440D-03 0.101D-03-0.606D-03-0.258D-02 0.361D-02
 Coeff:      0.242D-01-0.108D-01-0.742D-01-0.188D+00 0.202D+00 0.105D+01
 Gap=     0.033 Goal=   None    Shift=    0.000
 Gap=     0.258 Goal=   None    Shift=    0.000
 RMSDP=1.23D-02 MaxDP=1.12D+00 DE=-3.47D-07 OVMax= 1.77D-03

 Cycle  13  Pass 1  IDiag  1:
 RMSU=  9.45D-05    CP:  3.00D+00  1.40D-01  4.77D-01  1.03D+00  1.88D+00
                    CP:  3.00D+00  3.00D+00  3.00D+00  2.13D+00  2.09D+00
                    CP:  1.77D+00  1.29D+00
 E= -529.524614076434     Delta-E=       -0.000000100856 Rises=F Damp=F
 DIIS: error= 7.15D-06 at cycle  13 NSaved=  13.
 NSaved=13 IEnMin=13 EnMin= -529.524614076434     IErMin=13 ErrMin= 7.15D-06
 ErrMax= 7.15D-06  0.00D+00 EMaxC= 1.00D-01 BMatC= 1.39D-08 BMatP= 4.97D-08
 IDIUse=1 WtCom= 1.00D+00 WtEn= 0.00D+00
 Coeff-Com: -0.582D-04 0.124D-03-0.359D-04-0.556D-03-0.322D-02-0.184D-03
 Coeff-Com:  0.140D-01 0.167D-01-0.192D-01-0.172D+00-0.739D-02 0.486D+00
 Coeff-Com:  0.686D+00
 Coeff:     -0.582D-04 0.124D-03-0.359D-04-0.556D-03-0.322D-02-0.184D-03
 Coeff:      0.140D-01 0.167D-01-0.192D-01-0.172D+00-0.739D-02 0.486D+00
 Coeff:      0.686D+00
 Gap=     0.033 Goal=   None    Shift=    0.000
 Gap=     0.258 Goal=   None    Shift=    0.000
 RMSDP=1.02D-03 MaxDP=9.38D-02 DE=-1.01D-07 OVMax= 2.51D-04

 Cycle  14  Pass 1  IDiag  1:
 RMSU=  1.93D-05    CP:  3.00D+00  1.40D-01  4.76D-01  1.03D+00  1.88D+00
                    CP:  3.00D+00  3.00D+00  3.00D+00  2.13D+00  2.10D+00
                    CP:  1.78D+00  1.93D+00  1.23D+00
 E= -529.524614086199     Delta-E=       -0.000000009765 Rises=F Damp=F
 DIIS: error= 3.79D-06 at cycle  14 NSaved=  14.
 NSaved=14 IEnMin=14 EnMin= -529.524614086199     IErMin=14 ErrMin= 3.79D-06
 ErrMax= 3.79D-06  0.00D+00 EMaxC= 1.00D-01 BMatC= 7.18D-09 BMatP= 1.39D-08
 IDIUse=1 WtCom= 1.00D+00 WtEn= 0.00D+00
 Coeff-Com:  0.690D-04-0.100D-03-0.102D-03-0.229D-03-0.116D-02-0.125D-02
 Coeff-Com:  0.845D-03 0.154D-01 0.166D-01-0.483D-01-0.834D-01-0.643D-01
 Coeff-Com:  0.477D+00 0.689D+00
 Coeff:      0.690D-04-0.100D-03-0.102D-03-0.229D-03-0.116D-02-0.125D-02
 Coeff:      0.845D-03 0.154D-01 0.166D-01-0.483D-01-0.834D-01-0.643D-01
 Coeff:      0.477D+00 0.689D+00
 Gap=     0.033 Goal=   None    Shift=    0.000
 Gap=     0.258 Goal=   None    Shift=    0.000
 RMSDP=6.38D-04 MaxDP=5.41D-02 DE=-9.77D-09 OVMax= 9.98D-05

 Cycle  15  Pass 1  IDiag  1:
 RMSU=  6.27D-06    CP:  3.00D+00  1.40D-01  4.76D-01  1.03D+00  1.88D+00
                    CP:  3.00D+00  3.00D+00  3.00D+00  2.12D+00  2.08D+00
                    CP:  1.76D+00  1.94D+00  1.74D+00  1.86D+00
 E= -529.524614092437     Delta-E=       -0.000000006238 Rises=F Damp=F
 DIIS: error= 2.03D-06 at cycle  15 NSaved=  15.
 NSaved=15 IEnMin=15 EnMin= -529.524614092437     IErMin=15 ErrMin= 2.03D-06
 ErrMax= 2.03D-06  0.00D+00 EMaxC= 1.00D-01 BMatC= 9.08D-10 BMatP= 7.18D-09
 IDIUse=1 WtCom= 1.00D+00 WtEn= 0.00D+00
 Coeff-Com: -0.394D-04 0.623D-04 0.254D-04 0.127D-03 0.104D-02 0.421D-03
 Coeff-Com: -0.234D-02-0.728D-02-0.264D-02 0.413D-01 0.299D-01-0.641D-01
 Coeff-Com: -0.352D+00-0.214D+00 0.157D+01
 Coeff:     -0.394D-04 0.623D-04 0.254D-04 0.127D-03 0.104D-02 0.421D-03
 Coeff:     -0.234D-02-0.728D-02-0.264D-02 0.413D-01 0.299D-01-0.641D-01
 Coeff:     -0.352D+00-0.214D+00 0.157D+01
 Gap=     0.033 Goal=   None    Shift=    0.000
 Gap=     0.258 Goal=   None    Shift=    0.000
 RMSDP=1.27D-03 MaxDP=1.12D-01 DE=-6.24D-09 OVMax= 1.48D-04

 Cycle  16  Pass 1  IDiag  1:
 RMSU=  5.73D-06    CP:  3.00D+00  1.40D-01  4.77D-01  1.03D+00  1.88D+00
                    CP:  3.00D+00  3.00D+00  3.00D+00  2.11D+00  2.05D+00
                    CP:  1.70D+00  2.08D+00  2.01D+00  2.98D+00  2.60D+00
 E= -529.524614095571     Delta-E=       -0.000000003134 Rises=F Damp=F
 DIIS: error= 9.72D-07 at cycle  16 NSaved=  16.
 NSaved=16 IEnMin=16 EnMin= -529.524614095571     IErMin=16 ErrMin= 9.72D-07
 ErrMax= 9.72D-07  0.00D+00 EMaxC= 1.00D-01 BMatC= 2.23D-10 BMatP= 9.08D-10
 IDIUse=1 WtCom= 1.00D+00 WtEn= 0.00D+00
 Coeff-Com: -0.179D-04 0.243D-04 0.148D-04 0.661D-04 0.351D-03 0.269D-03
 Coeff-Com: -0.844D-03-0.344D-02-0.317D-02 0.140D-01 0.205D-01 0.136D-02
 Coeff-Com: -0.152D+00-0.167D+00 0.269D+00 0.102D+01
 Coeff:     -0.179D-04 0.243D-04 0.148D-04 0.661D-04 0.351D-03 0.269D-03
 Coeff:     -0.844D-03-0.344D-02-0.317D-02 0.140D-01 0.205D-01 0.136D-02
 Coeff:     -0.152D+00-0.167D+00 0.269D+00 0.102D+01
 Gap=     0.033 Goal=   None    Shift=    0.000
 Gap=     0.258 Goal=   None    Shift=    0.000
 RMSDP=4.20D-04 MaxDP=3.86D-02 DE=-3.13D-09 OVMax= 5.59D-05

 Cycle  17  Pass 1  IDiag  1:
 RMSU=  1.57D-06    CP:  3.00D+00  1.40D-01  4.77D-01  1.03D+00  1.88D+00
                    CP:  3.00D+00  3.00D+00  3.00D+00  2.11D+00  2.05D+00
                    CP:  1.69D+00  2.07D+00  2.01D+00  3.00D+00  2.82D+00
                    CP:  1.21D+00
 E= -529.524614096096     Delta-E=       -0.000000000525 Rises=F Damp=F
 DIIS: error= 6.32D-07 at cycle  17 NSaved=  17.
 NSaved=17 IEnMin=17 EnMin= -529.524614096096     IErMin=17 ErrMin= 6.32D-07
 ErrMax= 6.32D-07  0.00D+00 EMaxC= 1.00D-01 BMatC= 1.17D-10 BMatP= 2.23D-10
 IDIUse=1 WtCom= 1.00D+00 WtEn= 0.00D+00
 Coeff-Com:  0.450D-05-0.606D-05 0.354D-05-0.949D-05-0.242D-03-0.648D-04
 Coeff-Com:  0.278D-03 0.131D-02-0.605D-03-0.902D-02 0.456D-03 0.277D-01
 Coeff-Com:  0.416D-01-0.236D-01-0.451D+00 0.638D+00 0.775D+00
 Coeff:      0.450D-05-0.606D-05 0.354D-05-0.949D-05-0.242D-03-0.648D-04
 Coeff:      0.278D-03 0.131D-02-0.605D-03-0.902D-02 0.456D-03 0.277D-01
 Coeff:      0.416D-01-0.236D-01-0.451D+00 0.638D+00 0.775D+00
 Gap=     0.033 Goal=   None    Shift=    0.000
 Gap=     0.258 Goal=   None    Shift=    0.000
 RMSDP=2.61D-04 MaxDP=2.58D-02 DE=-5.25D-10 OVMax= 3.87D-05

 Cycle  18  Pass 1  IDiag  1:
 RMSU=  1.40D-06    CP:  3.00D+00  1.40D-01  4.77D-01  1.03D+00  1.88D+00
                    CP:  3.00D+00  3.00D+00  3.00D+00  2.11D+00  2.05D+00
                    CP:  1.69D+00  2.05D+00  1.96D+00  2.94D+00  2.73D+00
                    CP:  1.22D+00  8.83D-01
 E= -529.524614096235     Delta-E=       -0.000000000140 Rises=F Damp=F
 DIIS: error= 1.69D-07 at cycle  18 NSaved=  18.
 NSaved=18 IEnMin=18 EnMin= -529.524614096235     IErMin=18 ErrMin= 1.69D-07
 ErrMax= 1.69D-07  0.00D+00 EMaxC= 1.00D-01 BMatC= 6.14D-12 BMatP= 1.17D-10
 IDIUse=1 WtCom= 1.00D+00 WtEn= 0.00D+00
 Coeff-Com:  0.690D-06-0.518D-06 0.416D-06-0.104D-04-0.318D-04 0.157D-04
 Coeff-Com:  0.199D-03 0.333D-03-0.178D-03-0.239D-02-0.104D-03 0.829D-02
 Coeff-Com:  0.124D-01 0.139D-02-0.697D-01-0.244D-01 0.887D-01 0.986D+00
 Coeff:      0.690D-06-0.518D-06 0.416D-06-0.104D-04-0.318D-04 0.157D-04
 Coeff:      0.199D-03 0.333D-03-0.178D-03-0.239D-02-0.104D-03 0.829D-02
 Coeff:      0.124D-01 0.139D-02-0.697D-01-0.244D-01 0.887D-01 0.986D+00
 Gap=     0.033 Goal=   None    Shift=    0.000
 Gap=     0.258 Goal=   None    Shift=    0.000
 RMSDP=1.60D-04 MaxDP=1.72D-02 DE=-1.40D-10 OVMax= 2.42D-05

 Cycle  19  Pass 1  IDiag  1:
 RMSU=  5.46D-07    CP:  3.00D+00  1.40D-01  4.77D-01  1.03D+00  1.88D+00
                    CP:  3.00D+00  3.00D+00  3.00D+00  2.11D+00  2.05D+00
                    CP:  1.69D+00  2.02D+00  1.91D+00  2.81D+00  2.53D+00
                    CP:  1.09D+00  8.16D-01  1.02D+00
 E= -529.524614096242     Delta-E=       -0.000000000006 Rises=F Damp=F
 DIIS: error= 4.25D-08 at cycle  19 NSaved=  19.
 NSaved=19 IEnMin=19 EnMin= -529.524614096242     IErMin=19 ErrMin= 4.25D-08
 ErrMax= 4.25D-08  0.00D+00 EMaxC= 1.00D-01 BMatC= 6.07D-13 BMatP= 6.14D-12
 IDIUse=1 WtCom= 1.00D+00 WtEn= 0.00D+00
 Coeff-Com: -0.479D-06 0.662D-06-0.169D-05 0.170D-05 0.202D-04-0.474D-05
 Coeff-Com: -0.242D-04-0.917D-04 0.283D-04 0.374D-03-0.579D-04-0.209D-02
 Coeff-Com: -0.331D-02 0.327D-02 0.424D-01-0.630D-01-0.758D-01 0.339D-01
 Coeff-Com:  0.106D+01
 Coeff:     -0.479D-06 0.662D-06-0.169D-05 0.170D-05 0.202D-04-0.474D-05
 Coeff:     -0.242D-04-0.917D-04 0.283D-04 0.374D-03-0.579D-04-0.209D-02
 Coeff:     -0.331D-02 0.327D-02 0.424D-01-0.630D-01-0.758D-01 0.339D-01
 Coeff:      0.106D+01
 Gap=     0.033 Goal=   None    Shift=    0.000
 Gap=     0.258 Goal=   None    Shift=    0.000
 RMSDP=2.93D-05 MaxDP=2.29D-03 DE=-6.25D-12 OVMax= 4.97D-06

 Cycle  20  Pass 1  IDiag  1:
 RMSU=  9.51D-08    CP:  3.00D+00  1.40D-01  4.77D-01  1.03D+00  1.88D+00
                    CP:  3.00D+00  3.00D+00  3.00D+00  2.11D+00  2.05D+00
                    CP:  1.70D+00  2.01D+00  1.88D+00  2.73D+00  2.40D+00
                    CP:  1.01D+00  7.37D-01  9.66D-01  1.31D+00
 E= -529.524614096265     Delta-E=       -0.000000000023 Rises=F Damp=F
 DIIS: error= 8.91D-09 at cycle  20 NSaved=  20.
 NSaved=20 IEnMin=20 EnMin= -529.524614096265     IErMin=20 ErrMin= 8.91D-09
 ErrMax= 8.91D-09  0.00D+00 EMaxC= 1.00D-01 BMatC= 4.37D-14 BMatP= 6.07D-13
 IDIUse=1 WtCom= 1.00D+00 WtEn= 0.00D+00
 Coeff-Com: -0.333D-07 0.449D-07 0.270D-06 0.630D-06-0.411D-06 0.283D-05
 Coeff-Com: -0.763D-05-0.160D-04 0.153D-04 0.140D-03 0.568D-04-0.183D-03
 Coeff-Com: -0.651D-03-0.121D-02-0.184D-02 0.139D-01 0.260D-02-0.956D-01
 Coeff-Com: -0.139D+00 0.122D+01
 Coeff:     -0.333D-07 0.449D-07 0.270D-06 0.630D-06-0.411D-06 0.283D-05
 Coeff:     -0.763D-05-0.160D-04 0.153D-04 0.140D-03 0.568D-04-0.183D-03
 Coeff:     -0.651D-03-0.121D-02-0.184D-02 0.139D-01 0.260D-02-0.956D-01
 Coeff:     -0.139D+00 0.122D+01
 Gap=     0.033 Goal=   None    Shift=    0.000
 Gap=     0.258 Goal=   None    Shift=    0.000
 RMSDP=9.41D-06 MaxDP=9.05D-04 DE=-2.32D-11 OVMax= 3.02D-06

 Cycle  21  Pass 1  IDiag  1:
 Restarting incremental Fock formation.
 E= -529.524614096230     Delta-E=        0.000000000035 Rises=F Damp=F
 DIIS: error= 3.00D-09 at cycle  21 NSaved=  20.
 NSaved=20 IEnMin=19 EnMin= -529.524614096265     IErMin=20 ErrMin= 3.00D-09
 ErrMax= 3.00D-09  0.00D+00 EMaxC= 1.00D-01 BMatC= 9.06D-15 BMatP= 4.37D-14
 IDIUse=1 WtCom= 1.00D+00 WtEn= 0.00D+00
 Coeff-Com:  0.216D-08 0.261D-06 0.186D-06-0.106D-05 0.180D-05-0.270D-05
 Coeff-Com: -0.455D-05-0.462D-05 0.341D-04 0.467D-04 0.128D-03-0.181D-03
 Coeff-Com: -0.861D-03-0.343D-02 0.107D-01 0.594D-02-0.392D-01-0.135D+00
 Coeff-Com:  0.404D+00 0.758D+00
 Coeff:      0.216D-08 0.261D-06 0.186D-06-0.106D-05 0.180D-05-0.270D-05
 Coeff:     -0.455D-05-0.462D-05 0.341D-04 0.467D-04 0.128D-03-0.181D-03
 Coeff:     -0.861D-03-0.343D-02 0.107D-01 0.594D-02-0.392D-01-0.135D+00
 Coeff:      0.404D+00 0.758D+00
 Gap=     0.033 Goal=   None    Shift=    0.000
 Gap=     0.258 Goal=   None    Shift=    0.000
 RMSDP=1.79D-06 MaxDP=1.97D-04 DE= 3.52D-11 OVMax= 5.45D-07

 Cycle  22  Pass 1  IDiag  1:
 RMSU=  1.09D-06    CP:  1.00D+00
 E= -529.524614096238     Delta-E=       -0.000000000008 Rises=F Damp=F
 DIIS: error= 2.18D-09 at cycle  22 NSaved=  20.
 NSaved=20 IEnMin=18 EnMin= -529.524614096265     IErMin=20 ErrMin= 2.18D-09
 ErrMax= 2.18D-09  0.00D+00 EMaxC= 1.00D-01 BMatC= 3.43D-15 BMatP= 9.06D-15
 IDIUse=1 WtCom= 1.00D+00 WtEn= 0.00D+00
 Large coefficients: NSaved= 20 BigCof=    0.00 CofMax=   10.00 Det=-8.51D-15
 Inversion failed.  Reducing to 19 matrices.
 Large coefficients: NSaved= 19 BigCof=    0.00 CofMax=   10.00 Det=-9.97D-15
 Inversion failed.  Reducing to 18 matrices.
 Large coefficients: NSaved= 18 BigCof=    0.00 CofMax=   10.00 Det=-9.99D-15
 Inversion failed.  Reducing to 17 matrices.
 Coeff-Com: -0.214D-06-0.150D-05 0.158D-05-0.419D-05-0.144D-04 0.339D-05
 Coeff-Com:  0.574D-04-0.142D-05-0.653D-04-0.436D-03 0.131D-02 0.850D-03
 Coeff-Com:  0.242D-03-0.131D-01-0.117D+00 0.398D+00 0.729D+00
 Coeff:     -0.214D-06-0.150D-05 0.158D-05-0.419D-05-0.144D-04 0.339D-05
 Coeff:      0.574D-04-0.142D-05-0.653D-04-0.436D-03 0.131D-02 0.850D-03
 Coeff:      0.242D-03-0.131D-01-0.117D+00 0.398D+00 0.729D+00
 Gap=     0.033 Goal=   None    Shift=    0.000
 Gap=     0.258 Goal=   None    Shift=    0.000
 RMSDP=1.67D-06 MaxDP=1.84D-04 DE=-8.07D-12 OVMax= 2.59D-07

 Cycle  23  Pass 1  IDiag  1:
 RMSU=  1.20D-07    CP:  1.00D+00  1.76D+00
 E= -529.524614096240     Delta-E=       -0.000000000002 Rises=F Damp=F
 DIIS: error= 4.41D-10 at cycle  23 NSaved=  18.
 NSaved=18 IEnMin=15 EnMin= -529.524614096265     IErMin=18 ErrMin= 4.41D-10
 ErrMax= 4.41D-10  0.00D+00 EMaxC= 1.00D-01 BMatC= 3.41D-16 BMatP= 3.43D-15
 IDIUse=1 WtCom= 1.00D+00 WtEn= 0.00D+00
 Large coefficients: NSaved= 18 BigCof=    0.00 CofMax=   10.00 Det=-2.30D-15
 Inversion failed.  Reducing to 17 matrices.
 Large coefficients: NSaved= 17 BigCof=    0.00 CofMax=   10.00 Det=-2.38D-15
 Inversion failed.  Reducing to 16 matrices.
 Large coefficients: NSaved= 16 BigCof=    0.00 CofMax=   10.00 Det=-2.39D-15
 Inversion failed.  Reducing to 15 matrices.
 Coeff-Com: -0.198D-05-0.377D-05 0.102D-04 0.336D-04 0.460D-04-0.290D-04
 Coeff-Com: -0.504D-03 0.319D-03 0.104D-02 0.250D-02-0.107D-02-0.660D-01
 Coeff-Com:  0.860D-02 0.223D+00 0.832D+00
 Coeff:     -0.198D-05-0.377D-05 0.102D-04 0.336D-04 0.460D-04-0.290D-04
 Coeff:     -0.504D-03 0.319D-03 0.104D-02 0.250D-02-0.107D-02-0.660D-01
 Coeff:      0.860D-02 0.223D+00 0.832D+00
 Gap=     0.033 Goal=   None    Shift=    0.000
 Gap=     0.258 Goal=   None    Shift=    0.000
 RMSDP=5.48D-07 MaxDP=4.17D-05 DE=-1.93D-12 OVMax= 1.70D-07

 Cycle  24  Pass 1  IDiag  1:
 RMSU=  6.95D-08    CP:  1.00D+00  1.63D+00 -1.72D-01
 E= -529.524614096236     Delta-E=        0.000000000004 Rises=F Damp=F
 DIIS: error= 1.43D-10 at cycle  24 NSaved=  16.
 NSaved=16 IEnMin=12 EnMin= -529.524614096265     IErMin=16 ErrMin= 1.43D-10
 ErrMax= 1.43D-10  0.00D+00 EMaxC= 1.00D-01 BMatC= 1.80D-17 BMatP= 3.41D-16
 IDIUse=1 WtCom= 1.00D+00 WtEn= 0.00D+00
 Large coefficients: NSaved= 16 BigCof=    0.00 CofMax=   10.00 Det=-1.20D-16
 Inversion failed.  Reducing to 15 matrices.
 Coeff-Com: -0.305D-06 0.139D-05-0.880D-06-0.856D-05-0.128D-06-0.277D-05
 Coeff-Com:  0.208D-04 0.113D-03-0.957D-04 0.175D-02 0.150D-02-0.292D-01
 Coeff-Com: -0.347D-01 0.713D-01 0.989D+00
 Coeff:     -0.305D-06 0.139D-05-0.880D-06-0.856D-05-0.128D-06-0.277D-05
 Coeff:      0.208D-04 0.113D-03-0.957D-04 0.175D-02 0.150D-02-0.292D-01
 Coeff:     -0.347D-01 0.713D-01 0.989D+00
 Gap=     0.033 Goal=   None    Shift=    0.000
 Gap=     0.258 Goal=   None    Shift=    0.000
 RMSDP=7.26D-08 MaxDP=8.13D-06 DE= 3.75D-12 OVMax= 1.71D-08

 Cycle  25  Pass 1  IDiag  1:
 RMSU=  3.59D-09    CP:  1.00D+00  1.67D+00 -1.81D-01  1.02D+00
 E= -529.524614096231     Delta-E=        0.000000000005 Rises=F Damp=F
 DIIS: error= 7.68D-11 at cycle  25 NSaved=  16.
 NSaved=16 IEnMin=11 EnMin= -529.524614096265     IErMin=16 ErrMin= 7.68D-11
 ErrMax= 7.68D-11  0.00D+00 EMaxC= 1.00D-01 BMatC= 3.87D-18 BMatP= 1.80D-17
 IDIUse=1 WtCom= 1.00D+00 WtEn= 0.00D+00
 Large coefficients: NSaved= 16 BigCof=    0.00 CofMax=   10.00 Det=-1.36D-17
 Inversion failed.  Reducing to 15 matrices.
 Coeff-Com: -0.779D-06-0.321D-05-0.777D-06 0.837D-05 0.469D-04-0.667D-04
 Coeff-Com: -0.955D-04-0.286D-03 0.140D-02 0.575D-02-0.124D-01-0.344D-01
 Coeff-Com: -0.630D-01 0.281D+00 0.822D+00
 Coeff:     -0.779D-06-0.321D-05-0.777D-06 0.837D-05 0.469D-04-0.667D-04
 Coeff:     -0.955D-04-0.286D-03 0.140D-02 0.575D-02-0.124D-01-0.344D-01
 Coeff:     -0.630D-01 0.281D+00 0.822D+00
 Gap=     0.033 Goal=   None    Shift=    0.000
 Gap=     0.258 Goal=   None    Shift=    0.000
 RMSDP=1.48D-08 MaxDP=1.84D-06 DE= 4.89D-12 OVMax= 8.55D-09

 Cycle  26  Pass 1  IDiag  1:
 RMSU=  1.37D-09    CP:  1.00D+00  1.68D+00 -2.29D-01  1.00D+00  1.70D+00
 E= -529.524614096228     Delta-E=        0.000000000004 Rises=F Damp=F
 DIIS: error= 4.36D-11 at cycle  26 NSaved=  16.
 NSaved=16 IEnMin=10 EnMin= -529.524614096265     IErMin=16 ErrMin= 4.36D-11
 ErrMax= 4.36D-11  0.00D+00 EMaxC= 1.00D-01 BMatC= 6.49D-19 BMatP= 3.87D-18
 IDIUse=1 WtCom= 1.00D+00 WtEn= 0.00D+00
 Large coefficients: NSaved= 16 BigCof=    0.00 CofMax=   10.00 Det=-1.90D-18
 Inversion failed.  Reducing to 15 matrices.
 Coeff-Com:  0.343D-06-0.793D-06-0.185D-05 0.924D-06 0.142D-04-0.912D-05
 Coeff-Com: -0.122D-03 0.187D-03-0.175D-03 0.226D-02 0.382D-03-0.191D-01
 Coeff-Com: -0.544D-01 0.190D+00 0.881D+00
 Coeff:      0.343D-06-0.793D-06-0.185D-05 0.924D-06 0.142D-04-0.912D-05
 Coeff:     -0.122D-03 0.187D-03-0.175D-03 0.226D-02 0.382D-03-0.191D-01
 Coeff:     -0.544D-01 0.190D+00 0.881D+00
 Gap=     0.033 Goal=   None    Shift=    0.000
 Gap=     0.258 Goal=   None    Shift=    0.000
 RMSDP=5.70D-08 MaxDP=5.92D-06 DE= 3.52D-12 OVMax= 6.31D-09

 Cycle  27  Pass 1  IDiag  1:
 RMSU=  6.58D-10    CP:  1.00D+00  1.66D+00 -3.06D-01  1.01D+00  2.00D+00
                    CP:  1.30D+00
 E= -529.524614096221     Delta-E=        0.000000000007 Rises=F Damp=F
 DIIS: error= 3.76D-11 at cycle  27 NSaved=  16.
 NSaved=16 IEnMin= 9 EnMin= -529.524614096265     IErMin=16 ErrMin= 3.76D-11
 ErrMax= 3.76D-11  0.00D+00 EMaxC= 1.00D-01 BMatC= 1.41D-19 BMatP= 6.49D-19
 IDIUse=1 WtCom= 1.00D+00 WtEn= 0.00D+00
 Large coefficients: NSaved= 16 BigCof=    0.00 CofMax=   10.00 Det=-3.54D-19
 Inversion failed.  Reducing to 15 matrices.
 Coeff-Com: -0.111D-05-0.995D-06 0.345D-05 0.781D-05-0.850D-05-0.896D-04
 Coeff-Com:  0.989D-04-0.143D-03 0.184D-02 0.106D-02-0.102D-01-0.374D-01
 Coeff-Com:  0.535D-01 0.403D+00 0.588D+00
 Coeff:     -0.111D-05-0.995D-06 0.345D-05 0.781D-05-0.850D-05-0.896D-04
 Coeff:      0.989D-04-0.143D-03 0.184D-02 0.106D-02-0.102D-01-0.374D-01
 Coeff:      0.535D-01 0.403D+00 0.588D+00
 Gap=     0.033 Goal=   None    Shift=    0.000
 Gap=     0.258 Goal=   None    Shift=    0.000
 RMSDP=9.94D-09 MaxDP=1.06D-06 DE= 6.82D-12 OVMax= 9.26D-10

 Cycle  28  Pass 1  IDiag  1:
 RMSU=  2.00D-10    CP:  1.00D+00  1.66D+00 -3.19D-01  1.01D+00  2.08D+00
                    CP:  1.46D+00  1.20D+00
 E= -529.524614096234     Delta-E=       -0.000000000013 Rises=F Damp=F
 DIIS: error= 2.26D-11 at cycle  28 NSaved=  16.
 NSaved=16 IEnMin= 8 EnMin= -529.524614096265     IErMin=16 ErrMin= 2.26D-11
 ErrMax= 2.26D-11  0.00D+00 EMaxC= 1.00D-01 BMatC= 5.57D-20 BMatP= 1.41D-19
 IDIUse=1 WtCom= 1.00D+00 WtEn= 0.00D+00
 Large coefficients: NSaved= 16 BigCof=    0.00 CofMax=   10.00 Det=-1.48D-19
 Inversion failed.  Reducing to 15 matrices.
 Coeff-Com:  0.105D-06 0.926D-06 0.697D-06-0.431D-05-0.339D-04 0.786D-04
 Coeff-Com: -0.158D-03 0.736D-03 0.639D-03-0.363D-02-0.143D-01 0.132D-01
 Coeff-Com:  0.502D-01 0.313D+00 0.640D+00
 Coeff:      0.105D-06 0.926D-06 0.697D-06-0.431D-05-0.339D-04 0.786D-04
 Coeff:     -0.158D-03 0.736D-03 0.639D-03-0.363D-02-0.143D-01 0.132D-01
 Coeff:      0.502D-01 0.313D+00 0.640D+00
 Gap=     0.033 Goal=   None    Shift=    0.000
 Gap=     0.258 Goal=   None    Shift=    0.000
 RMSDP=7.77D-09 MaxDP=8.10D-07 DE=-1.33D-11 OVMax= 1.21D-09

 SCF Done:  E(UPBE1PBE) =  -529.524614096     A.U. after   28 cycles
            NFock= 28  Conv=0.78D-08     -V/T= 2.0027
 <Sx>= 0.0000 <Sy>= 0.0000 <Sz>= 0.5000 <S**2>= 0.7500 S= 0.5000
 <L.S>=  0.00000000000    
 KE= 5.281070071257D+02 PE=-2.125206896616D+03 EE= 6.333033934415D+02
 Annihilation of the first spin contaminant:
 S**2 before annihilation     0.7500,   after     0.7500
 Leave Link  502 at Wed Jan 29 15:53:55 2025, MaxMem=   104857600 cpu:             157.2 elap:             157.5
 (Enter /sw/cluster/pub/apps//g16/l601.exe)
 Copying SCF densities to generalized density rwf, IOpCl= 1 IROHF=0.

 **********************************************************************

            Population analysis using the SCF density.

 **********************************************************************

 Alpha  occ. eigenvalues --  -24.70649 -24.69765 -24.69762 -10.22568 -10.22439
 Alpha  occ. eigenvalues --  -10.22424 -10.13439 -10.13409 -10.13347  -1.19931
 Alpha  occ. eigenvalues --   -1.18379  -1.17780  -0.80778  -0.69044  -0.69022
 Alpha  occ. eigenvalues --   -0.57195  -0.56443  -0.50540  -0.47510  -0.47473
 Alpha  occ. eigenvalues --   -0.43249  -0.41931  -0.40001  -0.39041  -0.38750
 Alpha  occ. eigenvalues --   -0.36601  -0.36436  -0.31484  -0.28933  -0.28449
 Alpha  occ. eigenvalues --   -0.27547  -0.16803  -0.16706   0.05214
 Alpha virt. eigenvalues --    0.08480   0.09098   0.09142   0.09171   0.11355
 Alpha virt. eigenvalues --    0.13709   0.15369   0.16013   0.17801   0.18387
 Alpha virt. eigenvalues --    0.18787   0.19331   0.20005   0.21437   0.21514
 Alpha virt. eigenvalues --    0.22159   0.22408   0.23143   0.23245   0.24028
 Alpha virt. eigenvalues --    0.24307   0.24609   0.24767   0.28123   0.28271
 Alpha virt. eigenvalues --    0.28472   0.29292   0.30074   0.31721   0.33597
 Alpha virt. eigenvalues --    0.33814   0.35289   0.37079   0.37267   0.39500
 Alpha virt. eigenvalues --    0.40017   0.42420   0.43339   0.43498   0.44574
 Alpha virt. eigenvalues --    0.44836   0.45202   0.48231   0.49271   0.49475
 Alpha virt. eigenvalues --    0.50304   0.51004   0.53687   0.54071   0.60668
 Alpha virt. eigenvalues --    0.61170   0.61345   0.62690   0.63594   0.67417
 Alpha virt. eigenvalues --    0.67807   0.68150   0.68710   0.69738   0.72417
 Alpha virt. eigenvalues --    0.72822   0.73952   0.80521   0.81483   0.82209
 Alpha virt. eigenvalues --    0.86268   0.88352   0.91018   0.91117   0.94668
 Alpha virt. eigenvalues --    0.98116   0.98469   0.98917   1.03434   1.04178
 Alpha virt. eigenvalues --    1.07829   1.08556   1.10586   1.12048   1.13772
 Alpha virt. eigenvalues --    1.16874   1.19997   1.22581   1.28431   1.29431
 Alpha virt. eigenvalues --    1.38486   1.43219   1.49516   1.52575   1.53123
 Alpha virt. eigenvalues --    1.54392   1.54712   1.55618   1.57393   1.62414
 Alpha virt. eigenvalues --    1.64019   1.64949   1.65766   1.67633   1.68180
 Alpha virt. eigenvalues --    1.71539   1.71732   1.76846   1.80635   1.83866
 Alpha virt. eigenvalues --    1.89669   1.91238   1.95219   1.99829   2.00673
 Alpha virt. eigenvalues --    2.01165   2.03767   2.07599   2.08170   2.08425
 Alpha virt. eigenvalues --    2.13473   2.15853   2.19583   2.25756   2.28014
 Alpha virt. eigenvalues --    2.32999   2.36104   2.41765   2.42779   2.50452
 Alpha virt. eigenvalues --    2.60797   2.65451   2.72357   2.83379   2.84146
 Alpha virt. eigenvalues --    2.85865   2.86005   2.87965   2.88505   2.89066
 Alpha virt. eigenvalues --    2.92531   2.99068   2.99508   3.19806   3.25415
 Alpha virt. eigenvalues --    3.25861   3.31312   3.33573   3.49020   3.49664
 Alpha virt. eigenvalues --    3.64051   3.75604   3.83573   3.87460   3.89028
 Alpha virt. eigenvalues --    3.89168   3.89751   3.95119   3.98975   4.06356
 Alpha virt. eigenvalues --    4.10496   4.11186   4.11947   4.14632   4.19514
 Alpha virt. eigenvalues --    4.25775   4.26217   4.33802   4.87027   4.98431
 Alpha virt. eigenvalues --    5.00212   5.09202   6.42045   6.46176   6.49351
 Alpha virt. eigenvalues --    6.51896   6.58736   6.65198   6.76806   6.93801
 Alpha virt. eigenvalues --    7.01248  23.67584  24.08545  24.12636  24.24158
 Alpha virt. eigenvalues --   24.29108  24.39735  67.01091  67.04823  67.08335
  Beta  occ. eigenvalues --  -24.70649 -24.69764 -24.69761 -10.22564 -10.22442
  Beta  occ. eigenvalues --  -10.22426 -10.13411 -10.13385 -10.13314  -1.19930
  Beta  occ. eigenvalues --   -1.18377  -1.17779  -0.80745  -0.68993  -0.68989
  Beta  occ. eigenvalues --   -0.57158  -0.56400  -0.50506  -0.47494  -0.47429
  Beta  occ. eigenvalues --   -0.43246  -0.41883  -0.40001  -0.38911  -0.38750
  Beta  occ. eigenvalues --   -0.36544  -0.36427  -0.31433  -0.28881  -0.28352
  Beta  occ. eigenvalues --   -0.27512  -0.16783  -0.16680
  Beta virt. eigenvalues --    0.09134   0.09213   0.09540   0.10665   0.11361
  Beta virt. eigenvalues --    0.14066   0.14824   0.15841   0.16964   0.18738
  Beta virt. eigenvalues --    0.18841   0.19166   0.20221   0.20587   0.22595
  Beta virt. eigenvalues --    0.22648   0.22743   0.23069   0.24225   0.24333
  Beta virt. eigenvalues --    0.25003   0.25166   0.25218   0.25523   0.28943
  Beta virt. eigenvalues --    0.29006   0.29451   0.30057   0.30555   0.32198
  Beta virt. eigenvalues --    0.34013   0.35769   0.35907   0.37340   0.37776
  Beta virt. eigenvalues --    0.40012   0.40509   0.43252   0.43751   0.43969
  Beta virt. eigenvalues --    0.44924   0.45459   0.45596   0.48567   0.49610
  Beta virt. eigenvalues --    0.49876   0.50745   0.51476   0.53977   0.54470
  Beta virt. eigenvalues --    0.60900   0.61423   0.61542   0.62908   0.63835
  Beta virt. eigenvalues --    0.67660   0.68079   0.68344   0.68897   0.69881
  Beta virt. eigenvalues --    0.72559   0.73038   0.74207   0.80729   0.81652
  Beta virt. eigenvalues --    0.82350   0.86475   0.88604   0.91176   0.91417
  Beta virt. eigenvalues --    0.94810   0.98515   0.98664   0.99259   1.03592
  Beta virt. eigenvalues --    1.04317   1.07840   1.08642   1.10647   1.12181
  Beta virt. eigenvalues --    1.13883   1.16997   1.20047   1.22616   1.28459
  Beta virt. eigenvalues --    1.29457   1.38641   1.43342   1.49582   1.52664
  Beta virt. eigenvalues --    1.53252   1.54453   1.54805   1.55705   1.57515
  Beta virt. eigenvalues --    1.62529   1.64106   1.65019   1.65857   1.67726
  Beta virt. eigenvalues --    1.68280   1.71597   1.71796   1.76920   1.80693
  Beta virt. eigenvalues --    1.83988   1.89753   1.91295   1.95285   1.99858
  Beta virt. eigenvalues --    2.00700   2.01271   2.03884   2.07699   2.08244
  Beta virt. eigenvalues --    2.08472   2.13572   2.15933   2.19636   2.25800
  Beta virt. eigenvalues --    2.28060   2.33113   2.36128   2.41790   2.42857
  Beta virt. eigenvalues --    2.50524   2.60933   2.65549   2.72387   2.83572
  Beta virt. eigenvalues --    2.84313   2.85885   2.86111   2.88025   2.88559
  Beta virt. eigenvalues --    2.89289   2.92644   2.99103   2.99556   3.19835
  Beta virt. eigenvalues --    3.25441   3.25880   3.31330   3.33615   3.49067
  Beta virt. eigenvalues --    3.49705   3.64146   3.75646   3.83613   3.87458
  Beta virt. eigenvalues --    3.89025   3.89178   3.89749   3.95121   3.98988
  Beta virt. eigenvalues --    4.06360   4.10500   4.11239   4.11953   4.14635
  Beta virt. eigenvalues --    4.19617   4.25827   4.26225   4.33814   4.87043
  Beta virt. eigenvalues --    4.98447   5.00230   5.09215   6.42054   6.46189
  Beta virt. eigenvalues --    6.49365   6.51906   6.58745   6.65208   6.76821
  Beta virt. eigenvalues --    6.93822   7.01263  23.67596  24.08549  24.12659
  Beta virt. eigenvalues --   24.24171  24.29129  24.39762  67.01092  67.04825
  Beta virt. eigenvalues --   67.08336
          Condensed to atoms (all electrons):
               1          2          3          4          5          6
     1  C  101.499793 -30.503612  33.206377 -36.737332  33.258813 -30.532365
     2  C  -30.503612  23.171722 -14.478382  14.076376 -17.252607  12.619480
     3  C   33.206377 -14.478382  39.107021 -34.824958  23.073658 -17.246142
     4  C  -36.737332  14.076376 -34.824958  57.908455 -34.880099  14.096621
     5  C   33.258813 -17.252607  23.073658 -34.880099  39.196551 -14.518603
     6  C  -30.532365  12.619480 -17.246142  14.096621 -14.518603  23.198399
     7  H  -30.001382   8.100643  -7.744543   8.443015  -7.757893   8.107533
     8  H  -18.293663   3.898205  -8.257703   8.464456  -6.319940   6.485648
     9  H  -18.307069   6.484780  -6.315106   8.471899  -8.278842   3.905724
    10  F   -0.767455  -0.040883  -0.425039   0.853321  -0.746809   0.441381
    11  F    0.108987  -0.166112   0.102787   0.099770   0.103318  -0.166246
    12  F   -0.768212   0.441354  -0.746554   0.854674  -0.427684  -0.040035
               7          8          9         10         11         12
     1  C  -30.001382 -18.293663 -18.307069  -0.767455   0.108987  -0.768212
     2  C    8.100643   3.898205   6.484780  -0.040883  -0.166112   0.441354
     3  C   -7.744543  -8.257703  -6.315106  -0.425039   0.102787  -0.746554
     4  C    8.443015   8.464456   8.471899   0.853321   0.099770   0.854674
     5  C   -7.757893  -6.319940  -8.278842  -0.746809   0.103318  -0.427684
     6  C    8.107533   6.485648   3.905724   0.441381  -0.166246  -0.040035
     7  H   11.595550   5.828361   5.832837   0.169472  -0.018847   0.169647
     8  H    5.828361   7.799485   2.047959   0.353476  -0.033588   0.080402
     9  H    5.832837   2.047959   7.811293   0.080366  -0.033629   0.354178
    10  F    0.169472   0.353476   0.080366   9.260621  -0.002681   0.006511
    11  F   -0.018847  -0.033588  -0.033629  -0.002681   9.219805  -0.002680
    12  F    0.169647   0.080402   0.354178   0.006511  -0.002680   9.260632
          Atomic-Atomic Spin Densities.
               1          2          3          4          5          6
     1  C   93.198991 -28.491181  31.579084 -35.264677  31.631397 -28.519138
     2  C  -28.491181  11.948849 -13.134688  15.917915 -14.301626  10.021476
     3  C   31.579084 -13.134688  27.014301 -33.593766  25.158837 -14.296821
     4  C  -35.264677  15.917915 -33.593766  44.552525 -33.645214  15.940447
     5  C   31.631397 -14.301626  25.158837 -33.645214  27.097391 -13.173688
     6  C  -28.519138  10.021476 -14.296821  15.940447 -13.173688  11.972670
     7  H  -30.471096   8.286643  -7.843376   8.432208  -7.856757   8.293548
     8  H  -18.230726   3.352470  -8.090233   8.511957  -6.287666   6.408968
     9  H  -18.244097   6.408047  -6.282809   8.519394  -8.111321   3.359919
    10  F   -0.794313   0.257483  -1.057237   1.155816  -0.721304   0.458188
    11  F    0.108188  -0.093527   0.357211  -0.551767   0.357731  -0.093689
    12  F   -0.795103   0.458178  -0.721129   1.157321  -1.060156   0.258474
               7          8          9         10         11         12
     1  C  -30.471096 -18.230726 -18.244097  -0.794313   0.108188  -0.795103
     2  C    8.286643   3.352470   6.408047   0.257483  -0.093527   0.458178
     3  C   -7.843376  -8.090233  -6.282809  -1.057237   0.357211  -0.721129
     4  C    8.432208   8.511957   8.519394   1.155816  -0.551767   1.157321
     5  C   -7.856757  -6.287666  -8.111321  -0.721304   0.357731  -1.060156
     6  C    8.293548   6.408968   3.359919   0.458188  -0.093689   0.258474
     7  H   11.197541   5.835404   5.839878   0.167370  -0.019022   0.167544
     8  H    5.835404   7.361418   2.045138   0.380683  -0.033163   0.080543
     9  H    5.839878   2.045138   7.373281   0.080507  -0.033203   0.381379
    10  F    0.167370   0.380683   0.080507   0.089976  -0.010571   0.006402
    11  F   -0.019022  -0.033163  -0.033203  -0.010571   0.018714  -0.010592
    12  F    0.167544   0.080543   0.381379   0.006402  -0.010592   0.090158
 Mulliken charges and spin densities:
               1          2
     1  C    3.837118  -4.292671
     2  C   -0.350966   0.630039
     3  C    0.548584  -0.910626
     4  C   -0.826197   1.132160
     5  C    0.550136  -0.912376
     6  C   -0.351395   0.630355
     7  H   -1.724392   2.029886
     8  H   -1.053098   1.334795
     9  H   -1.054389   1.336113
    10  F   -0.182282   0.012999
    11  F   -0.210886  -0.003692
    12  F   -0.182234   0.013019
 Sum of Mulliken charges =  -1.00000   1.00000
 Mulliken charges and spin densities with hydrogens summed into heavy atoms:
               1          2
     1  C    2.112726  -2.262785
     2  C   -1.404064   1.964834
     3  C    0.548584  -0.910626
     4  C   -0.826197   1.132160
     5  C    0.550136  -0.912376
     6  C   -1.405784   1.966468
    10  F   -0.182282   0.012999
    11  F   -0.210886  -0.003692
    12  F   -0.182234   0.013019
 Electronic spatial extent (au):  <R**2>=           1222.6593
 Charge=             -1.0000 electrons
 Dipole moment (field-independent basis, Debye):
    X=             -7.9687    Y=             -4.6046    Z=              0.0000  Tot=              9.2034
 Quadrupole moment (field-independent basis, Debye-Ang):
   XX=           -104.0217   YY=            -96.0836   ZZ=            -67.8421
   XY=             -6.8849   XZ=             -0.0000   YZ=             -0.0000
 Traceless Quadrupole moment (field-independent basis, Debye-Ang):
   XX=            -14.7059   YY=             -6.7678   ZZ=             21.4737
   XY=             -6.8849   XZ=             -0.0000   YZ=             -0.0000
 Octapole moment (field-independent basis, Debye-Ang**2):
  XXX=           -123.6910  YYY=            -71.4662  ZZZ=             -0.0000  XYY=            -41.2391
  XXY=            -23.8615  XXZ=             -0.0000  XZZ=            -18.5212  YZZ=            -10.7070
  YYZ=             -0.0000  XYZ=             -0.0000
 Hexadecapole moment (field-independent basis, Debye-Ang**3):
 XXXX=          -1718.9887 YYYY=          -1497.7803 ZZZZ=           -222.6076 XXXY=            -85.6627
 XXXZ=             -0.0000 YYYX=           -106.3131 YYYZ=             -0.0000 ZZZX=              0.0000
 ZZZY=             -0.0000 XXYY=           -528.1547 XXZZ=           -263.8739 YYZZ=           -240.8476
 XXYZ=              0.0000 YYXZ=             -0.0000 ZZXY=            -19.9868
 N-N= 4.342718819530D+02 E-N=-2.125206896616D+03  KE= 5.281070071257D+02
                          Isotropic Fermi Contact Couplings
        Atom                 a.u.       MegaHertz       Gauss      10(-4) cm-1
     1  C(13)              0.01820      20.45770       7.29981       6.82395
     2  C(13)              0.01562      17.56380       6.26720       5.85865
     3  C(13)              0.00022       0.25133       0.08968       0.08384
     4  C(13)              0.00546       6.13600       2.18948       2.04675
     5  C(13)              0.00022       0.25113       0.08961       0.08377
     6  C(13)              0.01563      17.57543       6.27135       5.86253
     7  H(1)              -0.00086      -3.84749      -1.37288      -1.28338
     8  H(1)              -0.00055      -2.46081      -0.87808      -0.82084
     9  H(1)              -0.00055      -2.46205      -0.87852      -0.82125
    10  F(19)              0.00095       4.01745       1.43353       1.34008
    11  F(19)             -0.00016      -0.66270      -0.23647      -0.22105
    12  F(19)              0.00095       4.01643       1.43316       1.33974
 --------------------------------------------------------
       Center         ----  Spin Dipole Couplings  ----
                      3XX-RR        3YY-RR        3ZZ-RR
 --------------------------------------------------------
     1   Atom        0.011045     -0.000409     -0.010635
     2   Atom        0.005124      0.000299     -0.005423
     3   Atom        0.001463      0.000663     -0.002126
     4   Atom        0.000747      0.000099     -0.000846
     5   Atom        0.000949      0.001177     -0.002126
     6   Atom       -0.002250      0.007674     -0.005424
     7   Atom        0.004590      0.000106     -0.004696
     8   Atom        0.003047     -0.000030     -0.003017
     9   Atom       -0.001168      0.004186     -0.003018
    10   Atom       -0.002124      0.006977     -0.004853
    11   Atom        0.002470     -0.000346     -0.002124
    12   Atom        0.003518      0.001332     -0.004850
 --------------------------------------------------------
                        XY            XZ            YZ
 --------------------------------------------------------
     1   Atom        0.009916     -0.000000     -0.000000
     2   Atom       -0.004335      0.000000     -0.000000
     3   Atom        0.000100     -0.000000      0.000000
     4   Atom        0.000562     -0.000000     -0.000000
     5   Atom        0.000397     -0.000000     -0.000000
     6   Atom       -0.000080     -0.000000      0.000000
     7   Atom        0.003884      0.000000      0.000000
     8   Atom       -0.002200     -0.000000      0.000000
     9   Atom        0.000233      0.000000     -0.000000
    10   Atom       -0.001369     -0.000000      0.000000
    11   Atom        0.002438     -0.000000     -0.000000
    12   Atom       -0.004634      0.000000     -0.000000
 --------------------------------------------------------


 ---------------------------------------------------------------------------------
              Anisotropic Spin Dipole Couplings in Principal Axis System
 ---------------------------------------------------------------------------------

       Atom             a.u.   MegaHertz   Gauss  10(-4) cm-1        Axes

              Baa    -0.0106    -1.427    -0.509    -0.476  0.0000  0.0000  1.0000
     1 C(13)  Bbb    -0.0061    -0.823    -0.294    -0.275 -0.4999  0.8661  0.0000
              Bcc     0.0168     2.250     0.803     0.751  0.8661  0.4999 -0.0000
 
              Baa    -0.0054    -0.728    -0.260    -0.243 -0.0000  0.0000  1.0000
     2 C(13)  Bbb    -0.0022    -0.302    -0.108    -0.101  0.5068  0.8621 -0.0000
              Bcc     0.0077     1.030     0.367     0.343  0.8621 -0.5068  0.0000
 
              Baa    -0.0021    -0.285    -0.102    -0.095  0.0000 -0.0000  1.0000
     3 C(13)  Bbb     0.0007     0.087     0.031     0.029 -0.1222  0.9925  0.0000
              Bcc     0.0015     0.198     0.071     0.066  0.9925  0.1222 -0.0000
 
              Baa    -0.0008    -0.114    -0.041    -0.038  0.0000  0.0000  1.0000
     4 C(13)  Bbb    -0.0002    -0.030    -0.011    -0.010 -0.5003  0.8659  0.0000
              Bcc     0.0011     0.144     0.051     0.048  0.8659  0.5003 -0.0000
 
              Baa    -0.0021    -0.285    -0.102    -0.095  0.0000  0.0000  1.0000
     5 C(13)  Bbb     0.0007     0.087     0.031     0.029  0.7986 -0.6018 -0.0000
              Bcc     0.0015     0.198     0.071     0.066  0.6018  0.7986 -0.0000
 
              Baa    -0.0054    -0.728    -0.260    -0.243  0.0000 -0.0000  1.0000
     6 C(13)  Bbb    -0.0023    -0.302    -0.108    -0.101  1.0000  0.0081 -0.0000
              Bcc     0.0077     1.030     0.367     0.344 -0.0081  1.0000  0.0000
 
              Baa    -0.0047    -2.505    -0.894    -0.836 -0.0000 -0.0000  1.0000
     7 H(1)   Bbb    -0.0021    -1.140    -0.407    -0.380 -0.5000  0.8660  0.0000
              Bcc     0.0068     3.646     1.301     1.216  0.8660  0.5000  0.0000
 
              Baa    -0.0030    -1.610    -0.574    -0.537  0.0000 -0.0000  1.0000
     8 H(1)   Bbb    -0.0012    -0.628    -0.224    -0.209  0.4620  0.8869  0.0000
              Bcc     0.0042     2.238     0.798     0.746  0.8869 -0.4620 -0.0000
 
              Baa    -0.0030    -1.610    -0.575    -0.537 -0.0000  0.0000  1.0000
     9 H(1)   Bbb    -0.0012    -0.628    -0.224    -0.210  0.9991 -0.0434  0.0000
              Bcc     0.0042     2.239     0.799     0.747  0.0434  0.9991 -0.0000
 
              Baa    -0.0049    -2.437    -0.870    -0.813  0.0000 -0.0000  1.0000
    10 F(19)  Bbb    -0.0023    -1.168    -0.417    -0.390  0.9893  0.1456 -0.0000
              Bcc     0.0072     3.605     1.286     1.203 -0.1456  0.9893  0.0000
 
              Baa    -0.0021    -1.067    -0.381    -0.356  0.0000  0.0000  1.0000
    11 F(19)  Bbb    -0.0018    -0.881    -0.314    -0.294 -0.5000  0.8660 -0.0000
              Bcc     0.0039     1.947     0.695     0.650  0.8660  0.5000 -0.0000
 
              Baa    -0.0048    -2.436    -0.869    -0.812 -0.0000  0.0000  1.0000
    12 F(19)  Bbb    -0.0023    -1.173    -0.419    -0.391  0.6207  0.7841 -0.0000
              Bcc     0.0072     3.609     1.288     1.204  0.7841 -0.6207  0.0000
 

 ---------------------------------------------------------------------------------

 No NMR shielding tensors so no spin-rotation constants.
 Leave Link  601 at Wed Jan 29 15:53:55 2025, MaxMem=   104857600 cpu:               0.1 elap:               0.1
 (Enter /sw/cluster/pub/apps//g16/l701.exe)
 ... and contract with generalized density number  0.
 Compute integral first derivatives.
 Leave Link  701 at Wed Jan 29 15:53:55 2025, MaxMem=   104857600 cpu:               0.1 elap:               0.1
 (Enter /sw/cluster/pub/apps//g16/l702.exe)
 L702 exits ... SP integral derivatives will be done elsewhere.
 Leave Link  702 at Wed Jan 29 15:53:55 2025, MaxMem=   104857600 cpu:               0.0 elap:               0.0
 (Enter /sw/cluster/pub/apps//g16/l703.exe)
 Integral derivatives from FoFJK, PRISM(SPDF).
 Compute integral first derivatives, UseDBF=F ICtDFT=           0.
 Calling FoFJK, ICntrl=      2127 FMM=F ISym2X=0 I1Cent= 0 IOpClX= 1 NMat=1 NMatS=1 NMatT=0.
 FoFJK:  IHMeth= 1 ICntrl=    2127 DoSepK=F KAlg= 0 I1Cent=           0 FoldK=F
 IRaf=         0 NMat=       1 IRICut=       1 DoRegI=T DoRafI=F ISym2E= 0 IDoP0=0 IntGTp=1.
 FoFCou: FMM=F IPFlag=           0 FMFlag=      100000 FMFlg1=         800
         NFxFlg=           0 DoJE=F BraDBF=F KetDBF=F FulRan=T
         wScrn=  0.000000 ICntrl=      2127 IOpCl=  1 I1Cent=           0 NGrid=           0
         NMat0=    1 NMatS0=      1 NMatT0=    0 NMatD0=    1 NMtDS0=    0 NMtDT0=    0
 Symmetry not used in FoFCou.
 Leave Link  703 at Wed Jan 29 15:54:12 2025, MaxMem=   104857600 cpu:              16.6 elap:              16.6
 (Enter /sw/cluster/pub/apps//g16/l716.exe)
 Dipole        =-3.13513455D+00-1.81159039D+00 8.27667964D-11
 -------------------------------------------------------------------
 Center     Atomic                   Forces (Hartrees/Bohr)
 Number     Number              X              Y              Z
 -------------------------------------------------------------------
      1        6          -0.002801125   -0.001646806    0.000000000
      2        6          -0.002631707    0.000852489   -0.000000000
      3        6           0.001817889    0.008032051    0.000000000
      4        6           0.006506725    0.003816405   -0.000000000
      5        6           0.007814658   -0.002476499    0.000000000
      6        6          -0.000589420   -0.002727877   -0.000000000
      7        1           0.001605368    0.000922847    0.000000000
      8        1           0.002439005   -0.000011654   -0.000000000
      9        1           0.001212292    0.002128890   -0.000000000
     10        9          -0.001243684   -0.006498306   -0.000000000
     11        9          -0.007879163   -0.004589745    0.000000000
     12        9          -0.006250837    0.002198205   -0.000000000
 -------------------------------------------------------------------
 Cartesian Forces:  Max     0.008032051 RMS     0.003350493
 Leave Link  716 at Wed Jan 29 15:54:12 2025, MaxMem=   104857600 cpu:               0.0 elap:               0.0
 (Enter /sw/cluster/pub/apps//g16/l103.exe)

 GradGradGradGradGradGradGradGradGradGradGradGradGradGradGradGradGradGrad
 Berny optimization.
 FormGI is forming the generalized inverse of G from B-inverse, IUseBI=4.
 Internal  Forces:  Max     0.009118416 RMS     0.001928392
 Search for a local minimum.
 Step number   1 out of a maximum of   64
 All quantities printed in internal units (Hartrees-Bohrs-Radians)
 RMS Force = .19284D-02 SwitMx=.10000D-02 MixMth= 1
 Mixed Optimization -- RFO/linear search
 Second derivative matrix not updated -- first step.
 ITU=  0
     Eigenvalues ---    0.02228   0.02237   0.02251   0.02263   0.02266
     Eigenvalues ---    0.02279   0.02281   0.02293   0.02294   0.16000
     Eigenvalues ---    0.16000   0.16000   0.22083   0.23497   0.24910
     Eigenvalues ---    0.25000   0.25000   0.25000   0.35551   0.35595
     Eigenvalues ---    0.35597   0.43245   0.43794   0.47529   0.47569
     Eigenvalues ---    0.48001   0.48624   0.58784   0.58784   0.60039
 RFO step:  Lambda=-4.06151612D-04 EMin= 2.22780542D-02
 Linear search not attempted -- first point.
 Iteration  1 RMS(Cart)=  0.00525624 RMS(Int)=  0.00001830
 Iteration  2 RMS(Cart)=  0.00002281 RMS(Int)=  0.00000015
 Iteration  3 RMS(Cart)=  0.00000000 RMS(Int)=  0.00000015
 ITry= 1 IFail=0 DXMaxC= 1.90D-02 DCOld= 1.00D+10 DXMaxT= 3.00D-01 DXLimC= 3.00D+00 Rises=F
 Variable       Old X    -DE/DX   Delta X   Delta X   Delta X     New X
                                 (Linear)    (Quad)   (Total)
    R1        2.62578  -0.00134   0.00000  -0.00295  -0.00295   2.62283
    R2        2.62573  -0.00130   0.00000  -0.00284  -0.00284   2.62288
    R3        2.04789   0.00185   0.00000   0.00520   0.00520   2.05309
    R4        2.61285  -0.00046   0.00000  -0.00095  -0.00095   2.61189
    R5        2.04720   0.00208   0.00000   0.00585   0.00585   2.05305
    R6        2.62236  -0.00022   0.00000  -0.00036  -0.00036   2.62200
    R7        2.51916   0.00652   0.00000   0.01109   0.01109   2.53024
    R8        2.62247  -0.00025   0.00000  -0.00040  -0.00040   2.62207
    R9        2.50909   0.00912   0.00000   0.01518   0.01518   2.52427
   R10        2.61275  -0.00043   0.00000  -0.00089  -0.00089   2.61186
   R11        2.51915   0.00654   0.00000   0.01111   0.01111   2.53026
   R12        2.04717   0.00210   0.00000   0.00588   0.00588   2.05305
    A1        2.10960   0.00066   0.00000   0.00253   0.00253   2.11214
    A2        2.08679  -0.00034   0.00000  -0.00129  -0.00129   2.08550
    A3        2.08679  -0.00033   0.00000  -0.00124  -0.00124   2.08555
    A4        2.07691  -0.00031   0.00000  -0.00167  -0.00167   2.07524
    A5        2.12902  -0.00114   0.00000  -0.00724  -0.00724   2.12177
    A6        2.07726   0.00145   0.00000   0.00891   0.00891   2.08617
    A7        2.11434   0.00031   0.00000   0.00146   0.00146   2.11580
    A8        2.10386   0.00125   0.00000   0.00489   0.00489   2.10875
    A9        2.06499  -0.00156   0.00000  -0.00635  -0.00635   2.05863
   A10        2.07423  -0.00063   0.00000  -0.00207  -0.00207   2.07216
   A11        2.10476   0.00027   0.00000   0.00085   0.00085   2.10560
   A12        2.10420   0.00036   0.00000   0.00123   0.00123   2.10543
   A13        2.11462   0.00026   0.00000   0.00126   0.00126   2.11588
   A14        2.06462  -0.00151   0.00000  -0.00613  -0.00613   2.05849
   A15        2.10394   0.00125   0.00000   0.00487   0.00487   2.10881
   A16        2.07666  -0.00028   0.00000  -0.00151  -0.00151   2.07515
   A17        2.12917  -0.00116   0.00000  -0.00735  -0.00735   2.12182
   A18        2.07735   0.00144   0.00000   0.00886   0.00886   2.08621
    D1        0.00000  -0.00000   0.00000  -0.00000  -0.00000   0.00000
    D2        3.14159   0.00000   0.00000   0.00000   0.00000   3.14159
    D3        3.14159  -0.00000   0.00000  -0.00000   0.00000   3.14159
    D4        0.00000  -0.00000   0.00000  -0.00000   0.00000   0.00000
    D5        0.00000  -0.00000   0.00000  -0.00000  -0.00000   0.00000
    D6        3.14159  -0.00000   0.00000  -0.00000   0.00000   3.14159
    D7        3.14159   0.00000   0.00000   0.00000   0.00000   3.14159
    D8        0.00000   0.00000   0.00000   0.00000   0.00000   0.00000
    D9       -0.00000   0.00000   0.00000   0.00000   0.00000   0.00000
   D10        3.14159  -0.00000   0.00000  -0.00000   0.00000   3.14159
   D11        3.14159   0.00000   0.00000   0.00000   0.00000   3.14159
   D12        0.00000  -0.00000   0.00000  -0.00000  -0.00000   0.00000
   D13        0.00000  -0.00000   0.00000  -0.00000  -0.00000   0.00000
   D14        3.14159   0.00000   0.00000   0.00000   0.00000   3.14159
   D15        3.14159  -0.00000   0.00000  -0.00000   0.00000   3.14159
   D16       -0.00000   0.00000   0.00000   0.00000   0.00000   0.00000
   D17       -0.00000   0.00000   0.00000   0.00000   0.00000   0.00000
   D18        3.14159   0.00000   0.00000   0.00000   0.00000   3.14159
   D19        3.14159  -0.00000   0.00000  -0.00000   0.00000   3.14159
   D20        0.00000  -0.00000   0.00000  -0.00000  -0.00000   0.00000
   D21        0.00000  -0.00000   0.00000  -0.00000  -0.00000   0.00000
   D22        3.14159  -0.00000   0.00000  -0.00000   0.00000   3.14159
   D23        3.14159   0.00000   0.00000   0.00000   0.00000   3.14159
   D24        0.00000   0.00000   0.00000   0.00000   0.00000   0.00000
         Item               Value     Threshold  Converged?
 Maximum Force            0.009118     0.000450     NO 
 RMS     Force            0.001928     0.000300     NO 
 Maximum Displacement     0.018966     0.001800     NO 
 RMS     Displacement     0.005265     0.001200     NO 
 Predicted change in Energy=-2.032806D-04
 Lowest energy point so far.  Saving SCF results.
 GradGradGradGradGradGradGradGradGradGradGradGradGradGradGradGradGradGrad

 Leave Link  103 at Wed Jan 29 15:54:12 2025, MaxMem=   104857600 cpu:               0.0 elap:               0.0
 (Enter /sw/cluster/pub/apps//g16/l202.exe)
                          Input orientation:                          
 ---------------------------------------------------------------------
 Center     Atomic      Atomic             Coordinates (Angstroms)
 Number     Number       Type             X           Y           Z
 ---------------------------------------------------------------------
      1          6           0        1.193645    0.689151   -0.000000
      2          6           0        1.205933   -0.698738    0.000000
      3          6           0        0.001898   -1.377451    0.000000
      4          6           0       -1.207347   -0.697089   -0.000000
      5          6           0       -1.191903    0.690363    0.000000
      6          6           0       -0.002157    1.393790    0.000000
      7          1           0        2.134561    1.232337   -0.000000
      8          1           0        2.136584   -1.259285    0.000000
      9          1           0       -0.022298    2.480030    0.000000
     10          9           0       -0.031107   -2.715991    0.000000
     11          9           0       -2.364238   -1.364867    0.000000
     12          9           0       -2.367701    1.330916   -0.000000
 ---------------------------------------------------------------------
                    Distance matrix (angstroms):
                    1          2          3          4          5
     1  C    0.000000
     2  C    1.387943   0.000000
     3  C    2.385603   1.382154   0.000000
     4  C    2.772440   2.413280   1.387504   0.000000
     5  C    2.385549   2.771141   2.387681   1.387538   0.000000
     6  C    1.387970   2.416228   2.771244   2.413350   1.382137
     7  H    1.086450   2.142756   3.370348   3.858890   3.370326
     8  H    2.164609   1.086427   2.137954   3.390861   3.857454
     9  H    2.164664   3.407803   3.857558   3.390933   2.137963
    10  F    3.618703   2.366343   1.338947   2.336559   3.598708
    11  F    4.108226   3.631783   2.366170   1.335786   2.366081
    12  F    3.618708   4.109787   3.598646   2.336499   1.338958
                    6          7          8          9         10
     6  C    0.000000
     7  H    2.142810   0.000000
     8  H    3.407788   2.491623   0.000000
     9  H    1.086427   2.491742   4.317783   0.000000
    10  F    4.109883   4.503267   2.611681   5.196029   0.000000
    11  F    3.631751   5.194676   4.502060   4.501991   2.696115
    12  F    2.366379   4.503341   5.195933   2.611777   4.673021
                   11         12
    11  F    0.000000
    12  F    2.695785   0.000000
 Symmetry turned off by external request.
 Stoichiometry    C6H3F3(1-,2)
 Framework group  CS[SG(C6H3F3)]
 Deg. of freedom    21
 Full point group                 CS      NOp   2
 Rotational constants (GHZ):           2.3227156           1.7666585           1.0034409
 Leave Link  202 at Wed Jan 29 15:54:12 2025, MaxMem=   104857600 cpu:               0.0 elap:               0.0
 (Enter /sw/cluster/pub/apps//g16/l301.exe)
 Standard basis: 6-311++G(d,p) (5D, 7F)
 Ernie: Thresh=  0.10000D-02 Tol=  0.10000D-05 Strict=F.
   219 basis functions,   351 primitive gaussians,   228 cartesian basis functions
[...]
   D20        0.00000  -0.00000   0.00000   0.00000   0.00000   0.00000
   D21        0.00000  -0.00000   0.00000  -0.00000  -0.00000  -0.00000
   D22        3.14159  -0.00000   0.00000  -0.00000  -0.00000   3.14159
   D23        3.14159   0.00000   0.00000  -0.00000  -0.00000   3.14159
   D24       -0.00000   0.00000   0.00000  -0.00000  -0.00000  -0.00000
         Item               Value     Threshold  Converged?
 Maximum Force            0.000124     0.000450     YES
 RMS     Force            0.000049     0.000300     YES
 Maximum Displacement     0.001514     0.001800     YES
 RMS     Displacement     0.000353     0.001200     YES
 Predicted change in Energy=-3.225052D-07
 Optimization completed.
    -- Stationary point found.
                           ----------------------------
                           !   Optimized Parameters   !
                           ! (Angstroms and Degrees)  !
 --------------------------                            --------------------------
 ! Name  Definition              Value          Derivative Info.                !
 --------------------------------------------------------------------------------
 ! R1    R(1,2)                  1.3883         -DE/DX =    0.0001              !
 ! R2    R(1,6)                  1.3883         -DE/DX =    0.0001              !
 ! R3    R(1,7)                  1.087          -DE/DX =   -0.0001              !
 ! R4    R(2,3)                  1.3811         -DE/DX =    0.0001              !
 ! R5    R(2,8)                  1.0868         -DE/DX =   -0.0001              !
 ! R6    R(3,4)                  1.387          -DE/DX =   -0.0001              !
 ! R7    R(3,10)                 1.3416         -DE/DX =    0.0                 !
 ! R8    R(4,5)                  1.387          -DE/DX =   -0.0001              !
 ! R9    R(4,11)                 1.3384         -DE/DX =   -0.0001              !
 ! R10   R(5,6)                  1.3811         -DE/DX =    0.0001              !
 ! R11   R(5,12)                 1.3416         -DE/DX =    0.0                 !
 ! R12   R(6,9)                  1.0868         -DE/DX =   -0.0001              !
 ! A1    A(2,1,6)              121.1623         -DE/DX =    0.0                 !
 ! A2    A(2,1,7)              119.4186         -DE/DX =    0.0                 !
 ! A3    A(6,1,7)              119.4191         -DE/DX =    0.0                 !
 ! A4    A(1,2,3)              118.7819         -DE/DX =   -0.0001              !
 ! A5    A(1,2,8)              121.3968         -DE/DX =   -0.0001              !
 ! A6    A(3,2,8)              119.8213         -DE/DX =    0.0001              !
 ! A7    A(2,3,4)              121.2302         -DE/DX =    0.0                 !
 ! A8    A(2,3,10)             120.89           -DE/DX =    0.0                 !
 ! A9    A(4,3,10)             117.8797         -DE/DX =    0.0                 !
 ! A10   A(3,4,5)              118.8137         -DE/DX =    0.0                 !
 ! A11   A(3,4,11)             120.5935         -DE/DX =    0.0                 !
 ! A12   A(5,4,11)             120.5928         -DE/DX =    0.0                 !
 ! A13   A(4,5,6)              121.2306         -DE/DX =    0.0                 !
 ! A14   A(4,5,12)             117.8784         -DE/DX =    0.0                 !
 ! A15   A(6,5,12)             120.891          -DE/DX =    0.0                 !
 ! A16   A(1,6,5)              118.7813         -DE/DX =   -0.0001              !
 ! A17   A(1,6,9)              121.3967         -DE/DX =   -0.0001              !
 ! A18   A(5,6,9)              119.822          -DE/DX =    0.0001              !
 ! D1    D(6,1,2,3)              0.0            -DE/DX =    0.0                 !
 ! D2    D(6,1,2,8)            180.0            -DE/DX =    0.0                 !
 ! D3    D(7,1,2,3)           -180.0            -DE/DX =    0.0                 !
 ! D4    D(7,1,2,8)              0.0            -DE/DX =    0.0                 !
 ! D5    D(2,1,6,5)              0.0            -DE/DX =    0.0                 !
 ! D6    D(2,1,6,9)           -180.0            -DE/DX =    0.0                 !
 ! D7    D(7,1,6,5)           -180.0            -DE/DX =    0.0                 !
 ! D8    D(7,1,6,9)              0.0            -DE/DX =    0.0                 !
 ! D9    D(1,2,3,4)              0.0            -DE/DX =    0.0                 !
 ! D10   D(1,2,3,10)           180.0            -DE/DX =    0.0                 !
 ! D11   D(8,2,3,4)            180.0            -DE/DX =    0.0                 !
 ! D12   D(8,2,3,10)             0.0            -DE/DX =    0.0                 !
 ! D13   D(2,3,4,5)              0.0            -DE/DX =    0.0                 !
 ! D14   D(2,3,4,11)          -180.0            -DE/DX =    0.0                 !
 ! D15   D(10,3,4,5)          -180.0            -DE/DX =    0.0                 !
 ! D16   D(10,3,4,11)            0.0            -DE/DX =    0.0                 !
 ! D17   D(3,4,5,6)              0.0            -DE/DX =    0.0                 !
 ! D18   D(3,4,5,12)           180.0            -DE/DX =    0.0                 !
 ! D19   D(11,4,5,6)          -180.0            -DE/DX =    0.0                 !
 ! D20   D(11,4,5,12)            0.0            -DE/DX =    0.0                 !
 ! D21   D(4,5,6,1)              0.0            -DE/DX =    0.0                 !
 ! D22   D(4,5,6,9)            180.0            -DE/DX =    0.0                 !
 ! D23   D(12,5,6,1)           180.0            -DE/DX =    0.0                 !
 ! D24   D(12,5,6,9)             0.0            -DE/DX =    0.0                 !
 --------------------------------------------------------------------------------
 GradGradGradGradGradGradGradGradGradGradGradGradGradGradGradGradGradGrad

 Leave Link  103 at Wed Jan 29 16:09:15 2025, MaxMem=   104857600 cpu:               0.0 elap:               0.0
 (Enter /sw/cluster/pub/apps//g16/l9999.exe)

 ----------------------------------------------------------------------

 Electric dipole moment (input orientation):
 (Debye = 10**-18 statcoulomb cm , SI units = C m)
                  (au)            (Debye)         (10**-30 SI)
   Tot        0.363608D+01      0.924198D+01      0.308279D+02
   x         -0.314866D+01     -0.800311D+01     -0.266955D+02
   y         -0.181851D+01     -0.462218D+01     -0.154179D+02
   z          0.000000D+00      0.000000D+00      0.000000D+00

 Dipole polarizability, Alpha (input orientation).
 (esu units = cm**3 , SI units = C**2 m**2 J**-1)
 Alpha(0;0):
               (au)            (10**-24 esu)      (10**-40 SI)
   iso        0.120138D+04      0.178027D+03      0.198082D+03
   aniso      0.221041D+04      0.327549D+03      0.364447D+03
   xx         0.124345D+04      0.184261D+03      0.205018D+03
   yx        -0.802629D+03     -0.118937D+03     -0.132336D+03
   yy         0.217186D+04      0.321837D+03      0.358092D+03
   zx        -0.464747D-02     -0.688684D-03     -0.766264D-03
   zy        -0.449148D-01     -0.665569D-02     -0.740546D-02
   zz         0.188839D+03      0.279831D+02      0.311354D+02

 ----------------------------------------------------------------------

 Dipole orientation:
     6          0.00019599         -0.00033934         -2.60116885
     6          1.14300957         -1.97906997         -1.31216908
     6          1.12830169         -1.95360396          1.29749468
     6         -0.00019369          0.00033538          2.63111218
     6         -1.12849678          1.95394173          1.29681073
     6         -1.14282281          1.97874662         -1.31285254
     1          0.00035679         -0.00061774         -4.65528662
     1          2.03987049         -3.53194458         -2.31338863
     1         -2.03953329          3.53136074         -2.31462248
     9          2.20898253         -3.82475452          2.62348833
     9         -0.00039087          0.00067674          5.16023926
     9         -2.20936319          3.82541359          2.62221164

 Electric dipole moment (dipole orientation):
 (Debye = 10**-18 statcoulomb cm , SI units = C m)
                  (au)            (Debye)         (10**-30 SI)
   Tot        0.363608D+01      0.924198D+01      0.308279D+02
   x          0.000000D+00      0.000000D+00      0.000000D+00
   y          0.000000D+00      0.000000D+00      0.000000D+00
   z          0.363608D+01      0.924198D+01      0.308279D+02

 Dipole polarizability, Alpha (dipole orientation).
 (esu units = cm**3 , SI units = C**2 m**2 J**-1)
 Alpha(0;0):
               (au)            (10**-24 esu)      (10**-40 SI)
   iso        0.120138D+04      0.178027D+03      0.198082D+03
   aniso      0.221041D+04      0.327549D+03      0.364447D+03
   xx         0.800691D+03      0.118650D+03      0.132016D+03
   yx        -0.105936D+04     -0.156981D+03     -0.174664D+03
   yy         0.202301D+04      0.299778D+03      0.333549D+03
   zx         0.510899D+00      0.757075D-01      0.842359D-01
   zy        -0.831640D+00     -0.123236D+00     -0.137119D+00
   zz         0.780458D+03      0.115652D+03      0.128680D+03

 ----------------------------------------------------------------------
 1\1\GINC-N03\Freq\UPBE1PBE\6-311++G(d,p)\C6H3F3(1-,2)\UNKNOWN\29-Jan-2
 025\0\\#P Geom=AllCheck Guess=TCheck SCRF=Check GenChk UPBE1PBE/6-311+
 +G(d,p) Freq\\1 2 3-TFB SP\\-1,2\C,1.1920672329,0.6882375751,0.0000000
 014\C,1.2061449405,-0.7000041973,-0.0000000004\C,0.002505636,-1.377193
 5438,-0.0000000021\C,-1.2057872947,-0.6961643816,0.0000000075\C,-1.191
 4272729,0.6907715946,-0.0000000003\C,-0.003152268,1.3945630324,0.00000
 00002\H,2.1334343292,1.2317265798,0.0000000004\H,2.1395436556,-1.25677
 04394,-0.0000000019\H,-0.0186184595,2.4812963174,-0.0000000009\F,-0.03
 3248017,-2.7182970793,0.0000000011\F,-2.364842618,-1.3653345358,-0.000
 000003\F,-2.370750844,1.330335434,-0.000000001\\Version=ES64L-G16RevA.
 03\HF=-529.5248882\S2=0.750044\S2-1=0.\S2A=0.75\RMSD=9.576e-09\RMSF=9.
 873e-05\ZeroPoint=0.0757102\Thermal=0.0826421\Dipole=-4.2556743,-2.457
 6398,0.\DipoleDeriv=-1.02879,-0.557113,-0.0001149,-0.5102706,-0.459137
 8,-0.0002291,-0.000058,-0.0003069,0.4422014,1.0929395,1.3941341,0.0001
 026,-0.2825615,-0.3988034,0.000311,0.0001226,0.00134,0.934879,-0.40447
 28,0.5197737,-0.0002958,0.0467042,-0.4177773,-0.0002868,-0.0001783,-0.
 0022374,-0.2944765,0.2710886,0.1603664,0.0003901,0.1673936,0.0888697,0
 .0000428,0.0001876,0.0019694,0.1108338,-0.162467,-0.0873562,-0.0006162
 ,0.3881003,-0.6613292,0.0000806,-0.0000596,-0.0003001,-0.2930733,0.461
 9184,0.092834,0.0003086,1.7486135,0.2564173,0.0000113,0.000162,0.00108
 84,0.9290402,-0.7099418,0.0284747,0.0000103,0.019956,-0.7273562,0.0000
 708,0.0000227,0.0002202,-1.1386768,-0.7759502,0.0751927,-0.0001084,-0.
 0354641,-0.137339,-0.0000188,-0.0000904,-0.0007508,-0.7248598,-0.29086
 68,-0.3041196,0.0000169,-0.2175929,-0.623738,-0.000039,-0.0000611,-0.0
 006377,-0.7180651,0.0683285,-0.3716929,0.0000286,-0.296701,1.3081828,0
 .0000246,-0.0000291,-0.0003608,-0.0667525,-0.2238136,-0.2823628,0.0001
 548,-0.2843242,0.1030612,0.0000897,-0.0000567,-0.0004673,-0.116278,0.7
 020271,-0.668131,0.0001233,-0.7438532,0.6689498,-0.000057,0.0000383,0.
 0004431,-0.0647723\Polar=1243.4520155,-802.6286768,2171.863272,-0.0046
 475,-0.0449148,188.8391442\Quadrupole=-11.2641287,-4.8774761,16.141604
 8,-5.5355781,0.,0.\PG=C01 [X(C6H3F3)]\NImag=0\\0.71863550,0.01617090,0
 .69885364,0.00000025,0.00000137,0.12452642,-0.12436579,0.03335080,-0.0
 0000033,0.72496653,-0.02878672,-0.35592425,-0.00000208,-0.02318647,0.7
 1233422,-0.00000373,-0.00000697,-0.05082189,0.00000328,0.00000932,0.12
 264859,0.04083480,-0.08244943,0.00000157,-0.31326590,-0.04682828,-0.00
 000907,0.73456507,-0.02438650,-0.02582769,0.00000203,-0.12099630,-0.16
 141103,-0.00000854,0.00302245,0.68448658,0.00000678,0.00001184,0.00005
 399,-0.00000586,-0.00001561,-0.06202034,0.00001562,0.00001419,0.137543
 22,-0.01909377,0.03240920,-0.00000260,-0.04474788,-0.03164525,0.000011
 69,-0.28760569,0.15338217,-0.00001959,0.72547143,0.03219499,-0.0560869
 6,-0.00000057,0.02870905,0.06708575,0.00000114,0.04828005,-0.15866395,
 -0.00000162,-0.00662819,0.73287624,-0.00000537,-0.00001018,0.00071755,
 0.00000473,0.00001368,0.00562998,-0.00001325,-0.00001255,-0.06231578,0
 .00001716,0.00000171,0.12509116,-0.05515280,0.03072467,0.00000389,-0.0
 1476927,-0.03222481,-0.00001859,0.04372262,0.02161533,0.00003137,-0.10
 371865,0.04738802,-0.00002723,0.69973105,-0.02695268,0.07035788,-0.000
 00054,-0.03495715,-0.05662332,0.00000241,0.09557669,-0.02426472,-0.000
 00404,-0.05780309,-0.34249270,0.00000354,0.02294478,0.71935033,0.00000
 022,0.00000131,0.00012855,-0.00000030,-0.00000202,-0.00321054,0.000001
 52,0.00000197,0.00303544,-0.00000253,-0.00000055,-0.06231211,0.0000037
 7,-0.00000053,0.13760066,-0.29634522,0.07049065,-0.00000167,0.03172460
 ,0.07089754,0.00000945,-0.07542127,0.00259509,-0.00001623,0.03806839,-
 0.07933554,0.00001381,-0.27223428,-0.07057145,-0.00000162,0.69556558,0
 .13250334,-0.18416033,0.00000028,0.02039507,-0.02097874,0.00000055,0.0
 0002306,0.00400708,-0.00000128,-0.01911341,-0.01565809,0.00000072,-0.1
 4469367,-0.20261184,0.00000030,-0.00611131,0.74191974,-0.00000179,-0.0
 0000517,-0.05112699,0.00000180,0.00000743,0.00618151,-0.00000633,-0.00
 000706,-0.00327058,0.00000931,0.00000153,0.00575918,-0.00001431,0.0000
 0193,-0.06216515,0.00000667,-0.00000039,0.12288664,-0.26455422,-0.1193
 7330,-0.00000006,0.00986027,0.00017367,0.00000031,-0.00027878,-0.00160
 931,-0.00000053,-0.00182416,-0.00029353,0.00000046,-0.00440686,0.00328
 136,-0.00000006,-0.01783355,-0.00833657,0.00000024,0.27672057,-0.11932
 171,-0.12627812,-0.00000051,-0.02436786,-0.01325835,0.00000210,0.00091
 670,-0.00528225,-0.00000348,-0.00036317,-0.00152594,0.00000309,0.00089
 742,-0.00121033,-0.00000050,0.01615941,0.01448323,0.00000177,0.1261209
 4,0.13093158,-0.00000057,-0.00000113,-0.03882033,0.00000051,0.00000153
 ,0.00049709,-0.00000146,-0.00000141,0.00937958,0.00000191,0.00000021,-
 0.00314880,-0.00000303,0.00000040,0.00935444,0.00000152,0.00000006,0.0
 0055135,0.00000005,0.00000035,0.02811966,0.00822937,0.00143826,0.00000
 071,-0.26146510,0.12003257,-0.00000326,-0.02037849,0.01134993,0.000005
 47,-0.00337084,-0.00422576,-0.00000478,-0.00307291,0.00012024,0.000000
 68,0.00235114,0.00254968,-0.00000256,-0.00275226,-0.00158161,-0.000000
 53,0.27314316,0.02569205,-0.01121542,0.00000007,0.12131350,-0.12655258
 ,-0.00000059,-0.01497899,0.01096056,0.00000105,-0.00129330,-0.00157573
 ,-0.00000086,-0.00048014,-0.00154986,0.00000007,-0.00040618,-0.0058829
 1,-0.00000035,0.00106838,0.00209000,-0.00000009,-0.13107421,0.13107522
 ,0.00000167,0.00000373,0.00229909,-0.00000154,-0.00000517,-0.03591667,
 0.00000473,0.00000482,0.00738200,-0.00000648,-0.00000084,0.00491072,0.
 00001014,-0.00000134,-0.00317889,-0.00000495,-0.00000002,0.00710868,-0
 .00000017,-0.00000120,-0.00320010,0.00000179,0.00000029,0.02318732,0.0
 0537937,0.02760107,-0.00000012,-0.00288580,0.00254307,0.00000050,-0.00
 211300,-0.00100826,-0.00000083,-0.00441040,-0.00072431,0.00000074,0.00
 153611,-0.02759025,-0.00000012,-0.05574578,0.00247563,0.00000042,0.000
 66890,-0.00099804,0.00000008,-0.00035673,0.00131640,-0.00000028,0.0530
 4069,0.00320773,-0.00828129,0.00000016,0.00552883,-0.00067984,-0.00000
 122,-0.00039580,-0.00248679,0.00000215,-0.00368348,-0.00050217,-0.0000
 0178,-0.00121742,-0.01101500,0.00000015,0.00121151,-0.33221456,-0.0000
 0075,-0.00358405,-0.00135056,-0.00000019,-0.00314192,0.00068534,0.0000
 0060,-0.00404811,0.35107663,0.00000172,0.00000329,0.00256425,-0.000001
 52,-0.00000443,0.00694951,0.00000427,0.00000407,-0.00306937,-0.0000055
 5,-0.00000057,0.00481322,0.00000881,-0.00000115,0.00746754,-0.00000445
 ,-0.00000022,-0.03598612,-0.00000015,-0.00000100,-0.00326509,0.0000015
 5,0.00000028,0.00120765,-0.00000024,0.00000057,0.02311577,-0.00841717,
 0.00215521,-0.00000008,0.00797351,-0.04404570,0.00000091,-0.07469050,-
 0.00436971,-0.00000164,0.00169482,0.03976996,0.00000132,-0.00732084,-0
 .00568320,-0.00000008,0.00346296,-0.00048997,0.00000049,0.00083570,-0.
 00140753,0.00000014,0.00314057,0.00152635,-0.00000043,0.00040850,0.000
 21019,-0.00000042,0.06722855,-0.00583753,0.00222149,-0.00000002,-0.009
 57092,-0.04132625,0.00000082,-0.00054328,-0.32245049,-0.00000153,-0.00
 480889,-0.05544007,0.00000117,0.00280280,0.00570941,0.,-0.00067283,-0.
 00832529,0.00000031,0.00287059,0.00024362,0.00000012,0.00377388,0.0014
 6724,-0.00000034,0.00107493,0.00287730,-0.00000038,0.00695410,0.409884
 60,0.00000108,0.00000191,0.00695471,-0.00000094,-0.00000252,0.00662294
 ,0.00000251,0.00000229,-0.04124523,-0.00000316,-0.00000027,0.00875670,
 0.00000505,-0.00000065,0.00675273,-0.00000261,-0.00000020,-0.00268412,
 -0.00000008,-0.00000056,0.00047138,0.00000088,0.00000017,-0.00386216,-
 0.00000013,0.00000035,-0.00045036,-0.00000026,-0.00000024,0.02310478,-
 0.00303573,-0.00301982,-0.00000080,-0.00715446,0.00839733,0.00000476,-
 0.04656551,-0.03756913,-0.00000821,-0.27443037,-0.11623612,0.00000695,
 -0.02170219,-0.00637038,-0.00000078,-0.00136126,-0.00441360,0.00000328
 ,0.00251878,0.00120804,0.00000076,0.00167883,-0.00236844,-0.00000247,0
 .00027091,0.00274534,-0.00000224,0.00645218,0.00211212,-0.00000132,0.3
 3323937,-0.00303185,0.00050945,-0.00000052,-0.00110079,-0.00368373,0.0
 0000273,0.00795593,0.00374248,-0.00000466,-0.11620203,-0.14029606,0.00
 000399,-0.05192493,-0.02113817,-0.00000050,0.00505756,-0.00943531,0.00
 000200,0.00122039,0.00109279,0.00000044,0.00195785,0.00003446,-0.00000
 145,-0.00155468,0.00143429,-0.00000129,0.00220858,0.00881168,-0.000000
 75,0.15541850,0.15376136,0.00000102,0.00000232,-0.00351470,-0.00000095
 ,-0.00000322,0.00616077,0.00000293,0.00000301,0.00773834,-0.00000404,-
 0.00000053,-0.03662557,0.00000631,-0.00000083,0.00774238,-0.00000307,0
 .,0.00615969,-0.00000010,-0.00000075,-0.00038832,0.00000112,0.00000018
 ,0.00052537,-0.00000018,0.00000037,0.00052664,-0.00000026,-0.00000021,
 -0.00468608,-0.00000153,-0.00000090,0.02104676,-0.00211433,-0.00949819
 ,-0.00000075,-0.00587071,0.00467305,0.00000374,0.00119665,-0.00202577,
 -0.00000634,-0.02603288,0.01110138,0.00000547,-0.26261199,0.10800513,-
 0.00000072,-0.05223131,0.02521175,0.00000280,0.00104561,0.00273742,0.0
 0000061,0.00285326,-0.00031542,-0.00000201,0.00420724,0.00316717,-0.00
 000177,-0.00076827,0.00184501,-0.00000102,0.01008944,-0.00000452,-0.00
 000125,0.33023731,-0.00145200,-0.00416840,0.00000032,0.00488224,0.0010
 1812,-0.00000174,-0.01057911,-0.00280976,0.00000298,0.05574944,-0.0277
 2032,-0.00000254,0.10416793,-0.13451166,0.00000031,-0.00931444,0.01885
 703,-0.00000125,-0.00153856,0.00006433,-0.00000028,-0.00119890,0.00046
 368,0.00000092,0.00091255,0.00045667,0.00000082,0.00317171,-0.00367323
 ,0.00000048,0.00009615,0.00516676,0.00000057,-0.14489701,0.14685678,-0
 .00000128,-0.00000232,0.00703936,0.00000112,0.00000309,-0.00272095,-0.
 00000304,-0.00000282,0.00678874,0.00000387,0.00000035,0.00872375,-0.00
 000618,0.00000080,-0.04121505,0.00000317,0.00000021,0.00658590,0.00000
 010,0.00000069,0.00044914,-0.00000108,-0.00000020,-0.00046300,0.000000
 17,-0.00000041,-0.00387364,0.00000031,0.00000029,0.00026472,0.00000160
 ,0.00000091,-0.00468527,0.00000125,-0.00000058,0.02310629\\-0.00011770
 ,-0.00007530,0.,-0.00015786,0.00027430,0.,0.00014683,-0.00011639,0.,0.
 00003743,0.00001558,0.,-0.00001536,0.00019446,0.,0.00014589,-0.0002718
 7,0.,0.00005618,0.00003162,0.,0.00005369,-0.00013967,0.,-0.00009261,0.
 00011628,0.,0.00000884,0.00002864,0.,-0.00009098,-0.00005229,0.,0.0000
 2567,-0.00000537,0.\\\@


 SUCCESS IS COUNTED SWEETEST
 BY THOSE WHO NE'ER SUCCEED.
 TO COMPREHEND NECTAR
 REQUIRES SOREST NEED.
           EMILY DICKINSON
 Job cpu time:       0 days  0 hours 10 minutes  0.1 seconds.
 Elapsed time:       0 days  0 hours 10 minutes  1.4 seconds.
 File lengths (MBytes):  RWF=    134 Int=      0 D2E=      0 Chk=      7 Scr=      1
 Normal termination of Gaussian 16 at Wed Jan 29 16:09:15 2025.
