 Entering Gaussian System, Link 0=g16
 Initial command:
 /sw/cluster/pub/apps//g16/l1.exe "/data/natrosa/28465/Gau-7309.inp" -scrdir="/data/natrosa/28465/"
 Entering Link 1 = /sw/cluster/pub/apps//g16/l1.exe PID=      7310.
  
 Copyright (c) 1988,1990,1992,1993,1995,1998,2003,2009,2016,
            Gaussian, Inc.  All Rights Reserved.
  
 This is part of the Gaussian(R) 16 program.  It is based on
 the Gaussian(R) 09 system (copyright 2009, Gaussian, Inc.),
 the Gaussian(R) 03 system (copyright 2003, Gaussian, Inc.),
 the Gaussian(R) 98 system (copyright 1998, Gaussian, Inc.),
 the Gaussian(R) 94 system (copyright 1995, Gaussian, Inc.),
 the Gaussian 92(TM) system (copyright 1992, Gaussian, Inc.),
 the Gaussian 90(TM) system (copyright 1990, Gaussian, Inc.),
 the Gaussian 88(TM) system (copyright 1988, Gaussian, Inc.),
 the Gaussian 86(TM) system (copyright 1986, Carnegie Mellon
 University), and the Gaussian 82(TM) system (copyright 1983,
 Carnegie Mellon University). Gaussian is a federally registered
 trademark of Gaussian, Inc.
  
 This software contains proprietary and confidential information,
 including trade secrets, belonging to Gaussian, Inc.
  
 This software is provided under written license and may be
 used, copied, transmitted, or stored only in accord with that
 written license.
  
 The following legend is applicable only to US Government
 contracts under FAR:
  
                    RESTRICTED RIGHTS LEGEND
  
 Use, reproduction and disclosure by the US Government is
 subject to restrictions as set forth in subparagraphs (a)
 and (c) of the Commercial Computer Software - Restricted
 Rights clause in FAR 52.227-19.
  
 Gaussian, Inc.
 340 Quinnipiac St., Bldg. 40, Wallingford CT 06492
  
  
 ---------------------------------------------------------------
 Warning -- This program may not be used in any manner that
 competes with the business of Gaussian, Inc. or will provide
 assistance to any competitor of Gaussian, Inc.  The licensee
 of this program is prohibited from giving any competitor of
 Gaussian, Inc. access to this program.  By using this program,
 the user acknowledges that Gaussian, Inc. is engaged in the
 business of creating and licensing software in the field of
 computational chemistry and represents and warrants to the
 licensee that it is not a competitor of Gaussian, Inc. and that
 it will not use this program in any manner prohibited above.
 ---------------------------------------------------------------
  

 Cite this work as:
 Gaussian 16, Revision A.03,
 M. J. Frisch, G. W. Trucks, H. B. Schlegel, G. E. Scuseria, 
 M. A. Robb, J. R. Cheeseman, G. Scalmani, V. Barone, 
 G. A. Petersson, H. Nakatsuji, X. Li, M. Caricato, A. V. Marenich, 
 J. Bloino, B. G. Janesko, R. Gomperts, B. Mennucci, H. P. Hratchian, 
 J. V. Ortiz, A. F. Izmaylov, J. L. Sonnenberg, D. Williams-Young, 
 F. Ding, F. Lipparini, F. Egidi, J. Goings, B. Peng, A. Petrone, 
 T. Henderson, D. Ranasinghe, V. G. Zakrzewski, J. Gao, N. Rega, 
 G. Zheng, W. Liang, M. Hada, M. Ehara, K. Toyota, R. Fukuda, 
 J. Hasegawa, M. Ishida, T. Nakajima, Y. Honda, O. Kitao, H. Nakai, 
 T. Vreven, K. Throssell, J. A. Montgomery, Jr., J. E. Peralta, 
 F. Ogliaro, M. J. Bearpark, J. J. Heyd, E. N. Brothers, K. N. Kudin, 
 V. N. Staroverov, T. A. Keith, R. Kobayashi, J. Normand, 
 K. Raghavachari, A. P. Rendell, J. C. Burant, S. S. Iyengar, 
 J. Tomasi, M. Cossi, J. M. Millam, M. Klene, C. Adamo, R. Cammi, 
 J. W. Ochterski, R. L. Martin, K. Morokuma, O. Farkas, 
 J. B. Foresman, and D. J. Fox, Gaussian, Inc., Wallingford CT, 2016.
 
 ******************************************
 Gaussian 16:  ES64L-G16RevA.03 25-Dec-2016
                29-Jan-2025 
 ******************************************
 %chk=1-2-3-TFB-CAT.chk
 --------------------------------------------------------
 #p opt freq PBE1PBE/6-311++G(d,p) density=current nosymm
 --------------------------------------------------------
 1/18=20,19=15,26=3,38=1/1,3;
 2/9=110,12=2,15=1,17=6,18=5,40=1/2;
 3/5=4,6=6,7=1111,11=2,25=1,30=1,71=1,74=-13/1,2,3;
 4//1;
 5/5=2,38=5/2;
 6/7=2,8=2,9=2,10=2,22=-1,28=1/1;
 7/30=1/1,2,3,16;
 1/18=20,19=15,26=3/3(2);
 2/9=110,15=1/2;
 99//99;
 2/9=110,15=1/2;
 3/5=4,6=6,7=1111,11=2,25=1,30=1,71=1,74=-13/1,2,3;
 4/5=5,16=3,69=1/1;
 5/5=2,38=5/2;
 7/30=1/1,2,3,16;
 1/18=20,19=15,26=3/3(-5);
 2/9=110,15=1/2;
 6/7=2,8=2,9=2,10=2,19=2,22=-1,28=1/1;
 99/9=1/99;
 Leave Link    1 at Wed Jan 29 15:50:24 2025, MaxMem=           0 cpu:               0.0 elap:               0.0
 (Enter /sw/cluster/pub/apps//g16/l101.exe)
 ------------
 1 2 3-TFB SP
 ------------
 Symbolic Z-matrix:
 Charge =  1 Multiplicity = 2
 C                     1.19504   0.68999   0. 
 C                     1.20556  -0.69947   0. 
 C                     0.00134  -1.37889   0. 
 C                    -1.20733  -0.69714   0. 
 C                    -1.19327   0.69054   0. 
 C                    -0.00294   1.3939    0. 
 H                     2.13357   1.23181   0. 
 H                     2.12876  -1.26631   0. 
 H                    -0.03233   2.47682   0. 
 F                    -0.02448  -2.71172   0. 
 F                    -2.35742  -1.36064   0. 
 F                    -2.36062   1.33428   0. 
 
 ITRead=  0  0  0  0  0  0  0  0  0  0  0  0
 MicOpt= -1 -1 -1 -1 -1 -1 -1 -1 -1 -1 -1 -1
 NAtoms=     12 NQM=       12 NQMF=       0 NMMI=      0 NMMIF=      0
                NMic=       0 NMicF=      0.
                    Isotopes and Nuclear Properties:
 (Nuclear quadrupole moments (NQMom) in fm**2, nuclear magnetic moments (NMagM)
  in nuclear magnetons)

  Atom         1           2           3           4           5           6           7           8           9          10
 IAtWgt=          12          12          12          12          12          12           1           1           1          19
 AtmWgt=  12.0000000  12.0000000  12.0000000  12.0000000  12.0000000  12.0000000   1.0078250   1.0078250   1.0078250  18.9984032
 NucSpn=           0           0           0           0           0           0           1           1           1           1
 AtZEff=  -0.0000000  -0.0000000  -0.0000000  -0.0000000  -0.0000000  -0.0000000  -0.0000000  -0.0000000  -0.0000000  -0.0000000
 NQMom=    0.0000000   0.0000000   0.0000000   0.0000000   0.0000000   0.0000000   0.0000000   0.0000000   0.0000000   0.0000000
 NMagM=    0.0000000   0.0000000   0.0000000   0.0000000   0.0000000   0.0000000   2.7928460   2.7928460   2.7928460   2.6288670
 AtZNuc=   6.0000000   6.0000000   6.0000000   6.0000000   6.0000000   6.0000000   1.0000000   1.0000000   1.0000000   9.0000000

  Atom        11          12
 IAtWgt=          19          19
 AtmWgt=  18.9984032  18.9984032
 NucSpn=           1           1
 AtZEff=  -0.0000000  -0.0000000
 NQMom=    0.0000000   0.0000000
 NMagM=    2.6288670   2.6288670
 AtZNuc=   9.0000000   9.0000000
 Leave Link  101 at Wed Jan 29 15:50:24 2025, MaxMem=   104857600 cpu:               0.0 elap:               0.0
 (Enter /sw/cluster/pub/apps//g16/l103.exe)

 GradGradGradGradGradGradGradGradGradGradGradGradGradGradGradGradGradGrad
 Berny optimization.
 Initialization pass.
                           ----------------------------
                           !    Initial Parameters    !
                           ! (Angstroms and Degrees)  !
 --------------------------                            --------------------------
 ! Name  Definition              Value          Derivative Info.                !
 --------------------------------------------------------------------------------
 ! R1    R(1,2)                  1.3895         estimate D2E/DX2                !
 ! R2    R(1,6)                  1.3895         estimate D2E/DX2                !
 ! R3    R(1,7)                  1.0837         estimate D2E/DX2                !
 ! R4    R(2,3)                  1.3827         estimate D2E/DX2                !
 ! R5    R(2,8)                  1.0833         estimate D2E/DX2                !
 ! R6    R(3,4)                  1.3877         estimate D2E/DX2                !
 ! R7    R(3,10)                 1.3331         estimate D2E/DX2                !
 ! R8    R(4,5)                  1.3878         estimate D2E/DX2                !
 ! R9    R(4,11)                 1.3278         estimate D2E/DX2                !
 ! R10   R(5,6)                  1.3826         estimate D2E/DX2                !
 ! R11   R(5,12)                 1.3331         estimate D2E/DX2                !
 ! R12   R(6,9)                  1.0833         estimate D2E/DX2                !
 ! A1    A(2,1,6)              120.8714         estimate D2E/DX2                !
 ! A2    A(2,1,7)              119.5643         estimate D2E/DX2                !
 ! A3    A(6,1,7)              119.5643         estimate D2E/DX2                !
 ! A4    A(1,2,3)              118.9982         estimate D2E/DX2                !
 ! A5    A(1,2,8)              121.9836         estimate D2E/DX2                !
 ! A6    A(3,2,8)              119.0182         estimate D2E/DX2                !
 ! A7    A(2,3,4)              121.1429         estimate D2E/DX2                !
 ! A8    A(2,3,10)             120.542          estimate D2E/DX2                !
 ! A9    A(4,3,10)             118.3151         estimate D2E/DX2                !
 ! A10   A(3,4,5)              118.8446         estimate D2E/DX2                !
 ! A11   A(3,4,11)             120.5936         estimate D2E/DX2                !
 ! A12   A(5,4,11)             120.5618         estimate D2E/DX2                !
 ! A13   A(4,5,6)              121.1591         estimate D2E/DX2                !
 ! A14   A(4,5,12)             118.2941         estimate D2E/DX2                !
 ! A15   A(6,5,12)             120.5469         estimate D2E/DX2                !
 ! A16   A(1,6,5)              118.9838         estimate D2E/DX2                !
 ! A17   A(1,6,9)              121.9925         estimate D2E/DX2                !
 ! A18   A(5,6,9)              119.0236         estimate D2E/DX2                !
 ! D1    D(6,1,2,3)              0.0            estimate D2E/DX2                !
 ! D2    D(6,1,2,8)            180.0            estimate D2E/DX2                !
 ! D3    D(7,1,2,3)            180.0            estimate D2E/DX2                !
 ! D4    D(7,1,2,8)              0.0            estimate D2E/DX2                !
 ! D5    D(2,1,6,5)              0.0            estimate D2E/DX2                !
 ! D6    D(2,1,6,9)            180.0            estimate D2E/DX2                !
 ! D7    D(7,1,6,5)            180.0            estimate D2E/DX2                !
 ! D8    D(7,1,6,9)              0.0            estimate D2E/DX2                !
 ! D9    D(1,2,3,4)              0.0            estimate D2E/DX2                !
 ! D10   D(1,2,3,10)           180.0            estimate D2E/DX2                !
 ! D11   D(8,2,3,4)            180.0            estimate D2E/DX2                !
 ! D12   D(8,2,3,10)             0.0            estimate D2E/DX2                !
 ! D13   D(2,3,4,5)              0.0            estimate D2E/DX2                !
 ! D14   D(2,3,4,11)           180.0            estimate D2E/DX2                !
 ! D15   D(10,3,4,5)           180.0            estimate D2E/DX2                !
 ! D16   D(10,3,4,11)            0.0            estimate D2E/DX2                !
 ! D17   D(3,4,5,6)              0.0            estimate D2E/DX2                !
 ! D18   D(3,4,5,12)           180.0            estimate D2E/DX2                !
 ! D19   D(11,4,5,6)           180.0            estimate D2E/DX2                !
 ! D20   D(11,4,5,12)            0.0            estimate D2E/DX2                !
 ! D21   D(4,5,6,1)              0.0            estimate D2E/DX2                !
 ! D22   D(4,5,6,9)            180.0            estimate D2E/DX2                !
 ! D23   D(12,5,6,1)           180.0            estimate D2E/DX2                !
 ! D24   D(12,5,6,9)             0.0            estimate D2E/DX2                !
 --------------------------------------------------------------------------------
 Trust Radius=3.00D-01 FncErr=1.00D-07 GrdErr=1.00D-06 EigMax=2.50D+02 EigMin=1.00D-04
 Number of steps in this run=     64 maximum allowed number of steps=    100.
 GradGradGradGradGradGradGradGradGradGradGradGradGradGradGradGradGradGrad

 Leave Link  103 at Wed Jan 29 15:50:24 2025, MaxMem=   104857600 cpu:               0.0 elap:               0.0
 (Enter /sw/cluster/pub/apps//g16/l202.exe)
                          Input orientation:                          
 ---------------------------------------------------------------------
 Center     Atomic      Atomic             Coordinates (Angstroms)
 Number     Number       Type             X           Y           Z
 ---------------------------------------------------------------------
      1          6           0        1.195040    0.689993    0.000000
      2          6           0        1.205558   -0.699469    0.000000
      3          6           0        0.001345   -1.378893    0.000000
      4          6           0       -1.207333   -0.697138    0.000000
      5          6           0       -1.193271    0.690543    0.000000
      6          6           0       -0.002939    1.393901    0.000000
      7          1           0        2.133568    1.231809    0.000000
      8          1           0        2.128758   -1.266312    0.000000
      9          1           0       -0.032335    2.476818    0.000000
     10          9           0       -0.024482   -2.711724    0.000000
     11          9           0       -2.357420   -1.360639    0.000000
     12          9           0       -2.360620    1.334279    0.000000
 ---------------------------------------------------------------------
                    Distance matrix (angstroms):
                    1          2          3          4          5
     1  C    0.000000
     2  C    1.389502   0.000000
     3  C    2.388555   1.382660   0.000000
     4  C    2.774081   2.412892   1.387693   0.000000
     5  C    2.388311   2.772457   2.389492   1.387752   0.000000
     6  C    1.389475   2.417161   2.772798   2.413091   1.382608
     7  H    1.083697   2.142671   3.370777   3.857778   3.370582
     8  H    2.167708   1.083332   2.130390   3.384296   3.855536
     9  H    2.167762   3.408985   3.855858   3.384468   2.130388
    10  F    3.613711   2.358425   1.333081   2.336170   3.597428
    11  F    4.101836   3.623805   2.358835   1.327755   2.358514
    12  F    3.613560   4.105333   3.597246   2.335964   1.333079
                    6          7          8          9         10
     6  C    0.000000
     7  H    2.142647   0.000000
     8  H    3.408939   2.498125   0.000000
     9  H    1.083316   2.498235   4.322192   0.000000
    10  F    4.105681   4.495401   2.593387   5.188548   0.000000
    11  F    3.623682   5.185533   4.487169   4.486881   2.695928
    12  F    2.358434   4.495355   5.188216   2.593512   4.672010
                   11         12
    11  F    0.000000
    12  F    2.694920   0.000000
 Symmetry turned off by external request.
 Stoichiometry    C6H3F3(1+,2)
 Framework group  CS[SG(C6H3F3)]
 Deg. of freedom    21
 Full point group                 CS      NOp   2
 Rotational constants (GHZ):           2.3337685           1.7666065           1.0054813
 Leave Link  202 at Wed Jan 29 15:50:24 2025, MaxMem=   104857600 cpu:               0.0 elap:               0.0
 (Enter /sw/cluster/pub/apps//g16/l301.exe)
 Standard basis: 6-311++G(d,p) (5D, 7F)
 Ernie: Thresh=  0.10000D-02 Tol=  0.10000D-05 Strict=F.
   219 basis functions,   351 primitive gaussians,   228 cartesian basis functions
    33 alpha electrons       32 beta electrons
       nuclear repulsion energy       434.2718819530 Hartrees.
 IExCor= 1009 DFT=T Ex+Corr=PBE1PBE ExCW=0 ScaHFX=  0.250000
 ScaDFX=  0.750000  0.750000  1.000000  1.000000 ScalE2=  1.000000  1.000000
 IRadAn=      5 IRanWt=     -1 IRanGd=            0 ICorTp=0 IEmpDi=  4
 NAtoms=   12 NActive=   12 NUniq=   12 SFac= 1.00D+00 NAtFMM=   60 NAOKFM=F Big=F
 Integral buffers will be    131072 words long.
 Raffenetti 2 integral format.
 Two-electron integral symmetry is turned off.
 Leave Link  301 at Wed Jan 29 15:50:24 2025, MaxMem=   104857600 cpu:               0.0 elap:               0.0
 (Enter /sw/cluster/pub/apps//g16/l302.exe)
 NPDir=0 NMtPBC=     1 NCelOv=     1 NCel=       1 NClECP=     1 NCelD=      1
         NCelK=      1 NCelE2=     1 NClLst=     1 CellRange=     0.0.
 One-electron integrals computed using PRISM.
 NBasis=   219 RedAO= T EigKep=  1.88D-06  NBF=   219
 NBsUse=   219 1.00D-06 EigRej= -1.00D+00 NBFU=   219
 Precomputing XC quadrature grid using
 IXCGrd= 4 IRadAn=           5 IRanWt=          -1 IRanGd=           0 AccXCQ= 0.00D+00.
 Generated NRdTot=       0 NPtTot=           0 NUsed=           0 NTot=          32
 NSgBfM=   228   228   228   228   228 MxSgAt=    12 MxSgA2=    12.
 Leave Link  302 at Wed Jan 29 15:50:24 2025, MaxMem=   104857600 cpu:               0.1 elap:               0.2
 (Enter /sw/cluster/pub/apps//g16/l303.exe)
 DipDrv:  MaxL=1.
 Leave Link  303 at Wed Jan 29 15:50:24 2025, MaxMem=   104857600 cpu:               0.0 elap:               0.0
 (Enter /sw/cluster/pub/apps//g16/l401.exe)
 ExpMin= 3.60D-02 ExpMax= 1.14D+04 ExpMxC= 1.72D+03 IAcc=3 IRadAn=         5 AccDes= 0.00D+00
 Harris functional with IExCor= 1009 and IRadAn=       5 diagonalized for initial guess.
 HarFok:  IExCor= 1009 AccDes= 0.00D+00 IRadAn=         5 IDoV= 1 UseB2=F ITyADJ=14
 ICtDFT=  3500011 ScaDFX=  1.000000  1.000000  1.000000  1.000000
 FoFCou: FMM=F IPFlag=           0 FMFlag=      100000 FMFlg1=           0
         NFxFlg=           0 DoJE=T BraDBF=F KetDBF=T FulRan=T
         wScrn=  0.000000 ICntrl=       500 IOpCl=  0 I1Cent=   200000004 NGrid=           0
         NMat0=    1 NMatS0=      1 NMatT0=    0 NMatD0=    1 NMtDS0=    0 NMtDT0=    0
 Symmetry not used in FoFCou.
 Harris En= -529.290454714757    
 JPrj=0 DoOrth=F DoCkMO=F.
 Initial guess <Sx>= 0.0000 <Sy>= 0.0000 <Sz>= 0.5000 <S**2>= 0.7500 S= 0.5000
 Leave Link  401 at Wed Jan 29 15:50:26 2025, MaxMem=   104857600 cpu:               1.6 elap:               1.6
 (Enter /sw/cluster/pub/apps//g16/l502.exe)
 Two-electron integral symmetry not used.
 UHF open shell SCF:
 Using DIIS extrapolation, IDIIS=  1040.
 NGot=   104857600 LenX=   104750604 LenY=   104698179
 Requested convergence on RMS density matrix=1.00D-08 within 128 cycles.
 Requested convergence on MAX density matrix=1.00D-06.
 Requested convergence on             energy=1.00D-06.
 No special actions if energy rises.
 Fock matrices will be formed incrementally for  20 cycles.

 Cycle   1  Pass 1  IDiag  1:
 FoFJK:  IHMeth= 1 ICntrl=       0 DoSepK=F KAlg= 0 I1Cent=           0 FoldK=F
 IRaf= 950000000 NMat=       1 IRICut=       1 DoRegI=T DoRafI=F ISym2E= 0 IDoP0=0 IntGTp=1.
 FoFCou: FMM=F IPFlag=           0 FMFlag=      100000 FMFlg1=           0
         NFxFlg=           0 DoJE=F BraDBF=F KetDBF=F FulRan=T
         wScrn=  0.000000 ICntrl=         0 IOpCl=  1 I1Cent=           0 NGrid=           0
         NMat0=    1 NMatS0=      1 NMatT0=    0 NMatD0=    1 NMtDS0=    0 NMtDT0=    0
 Symmetry not used in FoFCou.
 E= -529.045713010673    
 DIIS: error= 3.72D-02 at cycle   1 NSaved=   1.
 NSaved= 1 IEnMin= 1 EnMin= -529.045713010673     IErMin= 1 ErrMin= 3.72D-02
 ErrMax= 3.72D-02  0.00D+00 EMaxC= 1.00D-01 BMatC= 6.35D-01 BMatP= 6.35D-01
 IDIUse=3 WtCom= 6.28D-01 WtEn= 3.72D-01
 Coeff-Com:  0.100D+01
 Coeff-En:   0.100D+01
 Coeff:      0.100D+01
 Gap=     0.363 Goal=   None    Shift=    0.000
 Gap=    -0.040 Goal=   None    Shift=    0.000
 GapD=   -0.040 DampG=0.250 DampE=0.500 DampFc=0.2500 IDamp=-1.
 Damping current iteration by 2.50D-01
 RMSDP=1.50D-02 MaxDP=4.43D-01              OVMax= 6.59D-01

 Cycle   2  Pass 1  IDiag  1:
 RMSU=  3.41D-03    CP:  1.03D+00
 E= -529.092813876744     Delta-E=       -0.047100866072 Rises=F Damp=T
 DIIS: error= 1.17D-02 at cycle   2 NSaved=   2.
 NSaved= 2 IEnMin= 2 EnMin= -529.092813876744     IErMin= 2 ErrMin= 1.17D-02
 ErrMax= 1.17D-02  0.00D+00 EMaxC= 1.00D-01 BMatC= 1.46D-01 BMatP= 6.35D-01
 IDIUse=3 WtCom= 8.83D-01 WtEn= 1.17D-01
 Coeff-Com: -0.456D+00 0.146D+01
 Coeff-En:   0.458D-02 0.995D+00
 Coeff:     -0.402D+00 0.140D+01
 Gap=     0.314 Goal=   None    Shift=    0.000
 Gap=     0.009 Goal=   None    Shift=    0.000
 RMSDP=1.07D-02 MaxDP=4.89D-01 DE=-4.71D-02 OVMax= 5.51D-01

 Cycle   3  Pass 1  IDiag  1:
 RMSU=  7.66D-03    CP:  9.53D-01  2.78D+00
 E= -529.172629609584     Delta-E=       -0.079815732840 Rises=F Damp=F
 DIIS: error= 1.38D-02 at cycle   3 NSaved=   3.
 NSaved= 3 IEnMin= 3 EnMin= -529.172629609584     IErMin= 2 ErrMin= 1.17D-02
 ErrMax= 1.38D-02  0.00D+00 EMaxC= 1.00D-01 BMatC= 4.93D-02 BMatP= 1.46D-01
 IDIUse=3 WtCom= 8.62D-01 WtEn= 1.38D-01
 Coeff-Com: -0.350D+00 0.671D+00 0.679D+00
 Coeff-En:   0.000D+00 0.000D+00 0.100D+01
 Coeff:     -0.302D+00 0.578D+00 0.723D+00
 Gap=     0.243 Goal=   None    Shift=    0.000
 Gap=     0.060 Goal=   None    Shift=    0.000
 RMSDP=1.58D-03 MaxDP=9.53D-02 DE=-7.98D-02 OVMax= 1.25D-01

 Cycle   4  Pass 1  IDiag  1:
 RMSU=  1.03D-03    CP:  9.49D-01  2.79D+00  8.45D-01
 E= -529.184373150264     Delta-E=       -0.011743540680 Rises=F Damp=F
 DIIS: error= 6.25D-03 at cycle   4 NSaved=   4.
 NSaved= 4 IEnMin= 4 EnMin= -529.184373150264     IErMin= 4 ErrMin= 6.25D-03
 ErrMax= 6.25D-03  0.00D+00 EMaxC= 1.00D-01 BMatC= 1.15D-02 BMatP= 4.93D-02
 IDIUse=3 WtCom= 9.37D-01 WtEn= 6.25D-02
 Coeff-Com: -0.108D+00 0.183D+00 0.397D+00 0.529D+00
 Coeff-En:   0.000D+00 0.000D+00 0.162D+00 0.838D+00
 Coeff:     -0.102D+00 0.171D+00 0.382D+00 0.548D+00
 Gap=     0.236 Goal=   None    Shift=    0.000
 Gap=     0.062 Goal=   None    Shift=    0.000
 RMSDP=6.32D-04 MaxDP=2.20D-02 DE=-1.17D-02 OVMax= 3.12D-02

 Cycle   5  Pass 1  IDiag  1:
 RMSU=  3.62D-04    CP:  9.42D-01  2.78D+00  8.84D-01  8.11D-01
 E= -529.186973451678     Delta-E=       -0.002600301414 Rises=F Damp=F
 DIIS: error= 1.20D-03 at cycle   5 NSaved=   5.
 NSaved= 5 IEnMin= 5 EnMin= -529.186973451678     IErMin= 5 ErrMin= 1.20D-03
 ErrMax= 1.20D-03  0.00D+00 EMaxC= 1.00D-01 BMatC= 5.99D-04 BMatP= 1.15D-02
 IDIUse=3 WtCom= 9.88D-01 WtEn= 1.20D-02
 Coeff-Com: -0.127D-01 0.153D-01 0.101D+00 0.249D+00 0.648D+00
 Coeff-En:   0.000D+00 0.000D+00 0.000D+00 0.000D+00 0.100D+01
 Coeff:     -0.126D-01 0.151D-01 0.100D+00 0.246D+00 0.652D+00
 Gap=     0.236 Goal=   None    Shift=    0.000
 Gap=     0.067 Goal=   None    Shift=    0.000
 RMSDP=2.75D-04 MaxDP=1.56D-02 DE=-2.60D-03 OVMax= 9.59D-03

 Cycle   6  Pass 1  IDiag  1:
 RMSU=  1.47D-04    CP:  9.39D-01  2.77D+00  8.94D-01  9.16D-01  1.07D+00
 E= -529.187119802283     Delta-E=       -0.000146350605 Rises=F Damp=F
 DIIS: error= 4.89D-04 at cycle   6 NSaved=   6.
 NSaved= 6 IEnMin= 6 EnMin= -529.187119802283     IErMin= 6 ErrMin= 4.89D-04
 ErrMax= 4.89D-04  0.00D+00 EMaxC= 1.00D-01 BMatC= 1.32D-04 BMatP= 5.99D-04
 IDIUse=3 WtCom= 9.95D-01 WtEn= 4.89D-03
 Coeff-Com:  0.108D-01-0.211D-01-0.815D-02 0.302D-01 0.327D+00 0.661D+00
 Coeff-En:   0.000D+00 0.000D+00 0.000D+00 0.000D+00 0.000D+00 0.100D+01
 Coeff:      0.108D-01-0.210D-01-0.811D-02 0.301D-01 0.326D+00 0.663D+00
 Gap=     0.235 Goal=   None    Shift=    0.000
 Gap=     0.068 Goal=   None    Shift=    0.000
 RMSDP=1.41D-04 MaxDP=7.21D-03 DE=-1.46D-04 OVMax= 3.98D-03

 Cycle   7  Pass 1  IDiag  1:
 RMSU=  9.09D-05    CP:  9.40D-01  2.79D+00  8.97D-01  9.16D-01  1.11D+00
                    CP:  9.53D-01
 E= -529.187158010747     Delta-E=       -0.000038208464 Rises=F Damp=F
 DIIS: error= 3.75D-04 at cycle   7 NSaved=   7.
 NSaved= 7 IEnMin= 7 EnMin= -529.187158010747     IErMin= 7 ErrMin= 3.75D-04
 ErrMax= 3.75D-04  0.00D+00 EMaxC= 1.00D-01 BMatC= 2.47D-05 BMatP= 1.32D-04
 IDIUse=3 WtCom= 9.96D-01 WtEn= 3.75D-03
 Coeff-Com:  0.989D-02-0.152D-01-0.279D-01-0.486D-01-0.876D-02 0.305D+00
 Coeff-Com:  0.785D+00
 Coeff-En:   0.000D+00 0.000D+00 0.000D+00 0.000D+00 0.000D+00 0.000D+00
 Coeff-En:   0.100D+01
 Coeff:      0.985D-02-0.151D-01-0.278D-01-0.485D-01-0.873D-02 0.304D+00
 Coeff:      0.786D+00
 Gap=     0.235 Goal=   None    Shift=    0.000
 Gap=     0.069 Goal=   None    Shift=    0.000
 RMSDP=5.07D-05 MaxDP=2.13D-03 DE=-3.82D-05 OVMax= 2.51D-03

 Cycle   8  Pass 1  IDiag  1:
 RMSU=  2.39D-05    CP:  9.40D-01  2.79D+00  8.98D-01  9.35D-01  1.16D+00
                    CP:  1.03D+00  1.30D+00
 E= -529.187168355223     Delta-E=       -0.000010344476 Rises=F Damp=F
 DIIS: error= 9.38D-05 at cycle   8 NSaved=   8.
 NSaved= 8 IEnMin= 8 EnMin= -529.187168355223     IErMin= 8 ErrMin= 9.38D-05
 ErrMax= 9.38D-05  0.00D+00 EMaxC= 1.00D-01 BMatC= 5.75D-06 BMatP= 2.47D-05
 IDIUse=1 WtCom= 1.00D+00 WtEn= 0.00D+00
 Coeff-Com:  0.232D-02-0.266D-02-0.978D-02-0.286D-01-0.839D-01 0.941D-02
 Coeff-Com:  0.384D+00 0.730D+00
 Coeff:      0.232D-02-0.266D-02-0.978D-02-0.286D-01-0.839D-01 0.941D-02
 Coeff:      0.384D+00 0.730D+00
 Gap=     0.234 Goal=   None    Shift=    0.000
 Gap=     0.069 Goal=   None    Shift=    0.000
 RMSDP=2.50D-05 MaxDP=9.76D-04 DE=-1.03D-05 OVMax= 1.31D-03

 Cycle   9  Pass 1  IDiag  1:
 RMSU=  1.00D-05    CP:  9.40D-01  2.79D+00  9.00D-01  9.41D-01  1.16D+00
                    CP:  1.11D+00  1.44D+00  9.95D-01
 E= -529.187170234665     Delta-E=       -0.000001879442 Rises=F Damp=F
 DIIS: error= 4.13D-05 at cycle   9 NSaved=   9.
 NSaved= 9 IEnMin= 9 EnMin= -529.187170234665     IErMin= 9 ErrMin= 4.13D-05
 ErrMax= 4.13D-05  0.00D+00 EMaxC= 1.00D-01 BMatC= 8.45D-07 BMatP= 5.75D-06
 IDIUse=1 WtCom= 1.00D+00 WtEn= 0.00D+00
 Coeff-Com:  0.356D-03-0.141D-03-0.144D-02-0.663D-02-0.335D-01-0.193D-01
 Coeff-Com:  0.921D-01 0.336D+00 0.633D+00
 Coeff:      0.356D-03-0.141D-03-0.144D-02-0.663D-02-0.335D-01-0.193D-01
 Coeff:      0.921D-01 0.336D+00 0.633D+00
 Gap=     0.234 Goal=   None    Shift=    0.000
 Gap=     0.069 Goal=   None    Shift=    0.000
 RMSDP=9.26D-06 MaxDP=2.85D-04 DE=-1.88D-06 OVMax= 4.25D-04

 Cycle  10  Pass 1  IDiag  1:
 RMSU=  5.48D-06    CP:  9.40D-01  2.79D+00  8.99D-01  9.41D-01  1.17D+00
                    CP:  1.12D+00  1.44D+00  1.00D+00  9.14D-01
 E= -529.187170472484     Delta-E=       -0.000000237818 Rises=F Damp=F
 DIIS: error= 2.04D-05 at cycle  10 NSaved=  10.
 NSaved=10 IEnMin=10 EnMin= -529.187170472484     IErMin=10 ErrMin= 2.04D-05
 ErrMax= 2.04D-05  0.00D+00 EMaxC= 1.00D-01 BMatC= 2.32D-07 BMatP= 8.45D-07
 IDIUse=1 WtCom= 1.00D+00 WtEn= 0.00D+00
 Coeff-Com: -0.412D-03 0.517D-03 0.259D-02 0.654D-02 0.130D-01-0.145D-01
 Coeff-Com: -0.895D-01-0.981D-01 0.344D+00 0.836D+00
 Coeff:     -0.412D-03 0.517D-03 0.259D-02 0.654D-02 0.130D-01-0.145D-01
 Coeff:     -0.895D-01-0.981D-01 0.344D+00 0.836D+00
 Gap=     0.234 Goal=   None    Shift=    0.000
 Gap=     0.069 Goal=   None    Shift=    0.000
 RMSDP=5.54D-06 MaxDP=2.03D-04 DE=-2.38D-07 OVMax= 3.45D-04

 Cycle  11  Pass 1  IDiag  1:
 RMSU=  1.50D-06    CP:  9.40D-01  2.79D+00  8.99D-01  9.42D-01  1.17D+00
                    CP:  1.12D+00  1.46D+00  1.06D+00  1.17D+00  1.14D+00
 E= -529.187170583602     Delta-E=       -0.000000111118 Rises=F Damp=F
 DIIS: error= 1.00D-05 at cycle  11 NSaved=  11.
 NSaved=11 IEnMin=11 EnMin= -529.187170583602     IErMin=11 ErrMin= 1.00D-05
 ErrMax= 1.00D-05  0.00D+00 EMaxC= 1.00D-01 BMatC= 2.06D-08 BMatP= 2.32D-07
 IDIUse=1 WtCom= 1.00D+00 WtEn= 0.00D+00
 Coeff-Com: -0.298D-04 0.258D-04 0.606D-03 0.139D-02 0.521D-02-0.438D-02
 Coeff-Com: -0.167D-01-0.448D-01-0.567D-02 0.700D-01 0.994D+00
 Coeff:     -0.298D-04 0.258D-04 0.606D-03 0.139D-02 0.521D-02-0.438D-02
 Coeff:     -0.167D-01-0.448D-01-0.567D-02 0.700D-01 0.994D+00
 Gap=     0.234 Goal=   None    Shift=    0.000
 Gap=     0.069 Goal=   None    Shift=    0.000
 RMSDP=1.76D-06 MaxDP=1.06D-04 DE=-1.11D-07 OVMax= 1.47D-04

 Cycle  12  Pass 1  IDiag  1:
 RMSU=  7.51D-07    CP:  9.40D-01  2.79D+00  9.00D-01  9.41D-01  1.17D+00
                    CP:  1.12D+00  1.47D+00  1.08D+00  1.20D+00  1.30D+00
                    CP:  1.14D+00
 E= -529.187170600372     Delta-E=       -0.000000016770 Rises=F Damp=F
 DIIS: error= 3.86D-06 at cycle  12 NSaved=  12.
 NSaved=12 IEnMin=12 EnMin= -529.187170600372     IErMin=12 ErrMin= 3.86D-06
 ErrMax= 3.86D-06  0.00D+00 EMaxC= 1.00D-01 BMatC= 6.88D-09 BMatP= 2.06D-08
 IDIUse=1 WtCom= 1.00D+00 WtEn= 0.00D+00
 Coeff-Com:  0.136D-03-0.198D-03-0.321D-03-0.758D-03-0.763D-06 0.779D-03
 Coeff-Com:  0.120D-01 0.149D-02-0.839D-01-0.156D+00 0.477D+00 0.750D+00
 Coeff:      0.136D-03-0.198D-03-0.321D-03-0.758D-03-0.763D-06 0.779D-03
 Coeff:      0.120D-01 0.149D-02-0.839D-01-0.156D+00 0.477D+00 0.750D+00
 Gap=     0.234 Goal=   None    Shift=    0.000
 Gap=     0.069 Goal=   None    Shift=    0.000
 RMSDP=9.76D-07 MaxDP=4.52D-05 DE=-1.68D-08 OVMax= 8.72D-05

 Cycle  13  Pass 1  IDiag  1:
 RMSU=  3.10D-07    CP:  9.40D-01  2.79D+00  9.00D-01  9.42D-01  1.17D+00
                    CP:  1.12D+00  1.47D+00  1.08D+00  1.22D+00  1.36D+00
                    CP:  1.38D+00  1.16D+00
 E= -529.187170604964     Delta-E=       -0.000000004592 Rises=F Damp=F
 DIIS: error= 1.41D-06 at cycle  13 NSaved=  13.
 NSaved=13 IEnMin=13 EnMin= -529.187170604964     IErMin=13 ErrMin= 1.41D-06
 ErrMax= 1.41D-06  0.00D+00 EMaxC= 1.00D-01 BMatC= 6.74D-10 BMatP= 6.88D-09
 IDIUse=1 WtCom= 1.00D+00 WtEn= 0.00D+00
 Coeff-Com:  0.128D-04-0.160D-04-0.915D-04-0.196D-03-0.772D-03 0.665D-03
 Coeff-Com:  0.250D-02 0.881D-02-0.874D-02-0.102D-01-0.139D+00 0.123D-01
 Coeff-Com:  0.114D+01
 Coeff:      0.128D-04-0.160D-04-0.915D-04-0.196D-03-0.772D-03 0.665D-03
 Coeff:      0.250D-02 0.881D-02-0.874D-02-0.102D-01-0.139D+00 0.123D-01
 Coeff:      0.114D+01
 Gap=     0.234 Goal=   None    Shift=    0.000
 Gap=     0.069 Goal=   None    Shift=    0.000
 RMSDP=5.45D-07 MaxDP=2.91D-05 DE=-4.59D-09 OVMax= 9.78D-05

 Cycle  14  Pass 1  IDiag  1:
 RMSU=  2.03D-07    CP:  9.40D-01  2.79D+00  9.00D-01  9.42D-01  1.17D+00
                    CP:  1.12D+00  1.47D+00  1.08D+00  1.22D+00  1.39D+00
                    CP:  1.47D+00  1.45D+00  1.73D+00
 E= -529.187170606770     Delta-E=       -0.000000001806 Rises=F Damp=F
 DIIS: error= 1.27D-06 at cycle  14 NSaved=  14.
 NSaved=14 IEnMin=14 EnMin= -529.187170606770     IErMin=14 ErrMin= 1.27D-06
 ErrMax= 1.27D-06  0.00D+00 EMaxC= 1.00D-01 BMatC= 2.84D-10 BMatP= 6.74D-10
 IDIUse=1 WtCom= 1.00D+00 WtEn= 0.00D+00
 Coeff-Com: -0.153D-04 0.225D-04 0.407D-04 0.876D-04 0.807D-04-0.168D-03
 Coeff-Com: -0.143D-02-0.140D-02 0.911D-02 0.203D-01-0.351D-01-0.103D+00
 Coeff-Com: -0.147D+00 0.126D+01
 Coeff:     -0.153D-04 0.225D-04 0.407D-04 0.876D-04 0.807D-04-0.168D-03
 Coeff:     -0.143D-02-0.140D-02 0.911D-02 0.203D-01-0.351D-01-0.103D+00
 Coeff:     -0.147D+00 0.126D+01
 Gap=     0.234 Goal=   None    Shift=    0.000
 Gap=     0.069 Goal=   None    Shift=    0.000
 RMSDP=3.95D-07 MaxDP=1.39D-05 DE=-1.81D-09 OVMax= 1.02D-04

 Cycle  15  Pass 1  IDiag  1:
 RMSU=  1.22D-07    CP:  9.40D-01  2.79D+00  9.00D-01  9.42D-01  1.17D+00
                    CP:  1.12D+00  1.47D+00  1.08D+00  1.22D+00  1.40D+00
                    CP:  1.52D+00  1.65D+00  2.46D+00  2.07D+00
 E= -529.187170608184     Delta-E=       -0.000000001414 Rises=F Damp=F
 DIIS: error= 1.23D-06 at cycle  15 NSaved=  15.
 NSaved=15 IEnMin=15 EnMin= -529.187170608184     IErMin=15 ErrMin= 1.23D-06
 ErrMax= 1.23D-06  0.00D+00 EMaxC= 1.00D-01 BMatC= 2.24D-10 BMatP= 2.84D-10
 IDIUse=1 WtCom= 1.00D+00 WtEn= 0.00D+00
 Coeff-Com: -0.116D-05 0.327D-06-0.818D-05 0.428D-05 0.139D-03-0.686D-04
 Coeff-Com:  0.305D-03-0.143D-02-0.381D-02-0.988D-02 0.596D-01 0.642D-01
 Coeff-Com: -0.216D+00-0.783D+00 0.189D+01
 Coeff:     -0.116D-05 0.327D-06-0.818D-05 0.428D-05 0.139D-03-0.686D-04
 Coeff:      0.305D-03-0.143D-02-0.381D-02-0.988D-02 0.596D-01 0.642D-01
 Coeff:     -0.216D+00-0.783D+00 0.189D+01
 Gap=     0.234 Goal=   None    Shift=    0.000
 Gap=     0.069 Goal=   None    Shift=    0.000
 RMSDP=5.53D-07 MaxDP=1.86D-05 DE=-1.41D-09 OVMax= 1.55D-04

 Cycle  16  Pass 1  IDiag  1:
 RMSU=  2.25D-07    CP:  9.40D-01  2.79D+00  9.00D-01  9.42D-01  1.17D+00
                    CP:  1.12D+00  1.47D+00  1.08D+00  1.22D+00  1.41D+00
                    CP:  1.57D+00  1.88D+00  3.00D+00  3.00D+00  2.65D+00
 E= -529.187170610121     Delta-E=       -0.000000001937 Rises=F Damp=F
 DIIS: error= 1.05D-06 at cycle  16 NSaved=  16.
 NSaved=16 IEnMin=16 EnMin= -529.187170610121     IErMin=16 ErrMin= 1.05D-06
 ErrMax= 1.05D-06  0.00D+00 EMaxC= 1.00D-01 BMatC= 2.47D-10 BMatP= 2.24D-10
 IDIUse=1 WtCom= 1.00D+00 WtEn= 0.00D+00
 Coeff-Com:  0.441D-05-0.774D-05-0.240D-04-0.309D-04 0.816D-04 0.147D-04
 Coeff-Com:  0.839D-03-0.615D-03-0.687D-02-0.167D-01 0.642D-01 0.958D-01
 Coeff-Com: -0.119D+00-0.120D+01 0.175D+01 0.425D+00
 Coeff:      0.441D-05-0.774D-05-0.240D-04-0.309D-04 0.816D-04 0.147D-04
 Coeff:      0.839D-03-0.615D-03-0.687D-02-0.167D-01 0.642D-01 0.958D-01
 Coeff:     -0.119D+00-0.120D+01 0.175D+01 0.425D+00
 Gap=     0.234 Goal=   None    Shift=    0.000
 Gap=     0.069 Goal=   None    Shift=    0.000
 RMSDP=2.89D-07 MaxDP=8.50D-06 DE=-1.94D-09 OVMax= 7.83D-05

 Cycle  17  Pass 1  IDiag  1:
 RMSU=  1.02D-07    CP:  9.40D-01  2.79D+00  9.00D-01  9.42D-01  1.17D+00
                    CP:  1.12D+00  1.47D+00  1.08D+00  1.22D+00  1.41D+00
                    CP:  1.60D+00  2.00D+00  3.00D+00  3.00D+00  3.00D+00
                    CP:  2.04D+00
 E= -529.187170611054     Delta-E=       -0.000000000933 Rises=F Damp=F
 DIIS: error= 1.05D-06 at cycle  17 NSaved=  17.
 NSaved=17 IEnMin=17 EnMin= -529.187170611054     IErMin=16 ErrMin= 1.05D-06
 ErrMax= 1.05D-06  0.00D+00 EMaxC= 1.00D-01 BMatC= 1.82D-10 BMatP= 2.24D-10
 IDIUse=1 WtCom= 1.00D+00 WtEn= 0.00D+00
 Coeff-Com:  0.205D-04-0.272D-04-0.247D-04-0.103D-03-0.390D-03 0.374D-03
 Coeff-Com:  0.875D-03 0.463D-02-0.113D-02-0.265D-02-0.905D-01-0.247D-01
 Coeff-Com:  0.652D+00 0.649D-01-0.261D+01-0.302D+01 0.603D+01
 Coeff:      0.205D-04-0.272D-04-0.247D-04-0.103D-03-0.390D-03 0.374D-03
 Coeff:      0.875D-03 0.463D-02-0.113D-02-0.265D-02-0.905D-01-0.247D-01
 Coeff:      0.652D+00 0.649D-01-0.261D+01-0.302D+01 0.603D+01
 Gap=     0.234 Goal=   None    Shift=    0.000
 Gap=     0.069 Goal=   None    Shift=    0.000
 RMSDP=2.30D-06 MaxDP=6.48D-05 DE=-9.33D-10 OVMax= 6.46D-04

 Cycle  18  Pass 1  IDiag  1:
 RMSU=  1.88D-06    CP:  9.40D-01  2.79D+00  9.00D-01  9.42D-01  1.17D+00
                    CP:  1.12D+00  1.47D+00  1.08D+00  1.23D+00  1.43D+00
                    CP:  1.82D+00  2.95D+00  3.00D+00  3.00D+00  3.00D+00
                    CP:  3.00D+00  3.00D+00
 E= -529.187170616987     Delta-E=       -0.000000005934 Rises=F Damp=F
 DIIS: error= 6.41D-07 at cycle  18 NSaved=  18.
 NSaved=18 IEnMin=18 EnMin= -529.187170616987     IErMin=18 ErrMin= 6.41D-07
 ErrMax= 6.41D-07  0.00D+00 EMaxC= 1.00D-01 BMatC= 1.40D-10 BMatP= 1.82D-10
 IDIUse=1 WtCom= 1.00D+00 WtEn= 0.00D+00
 Coeff-Com:  0.106D-04-0.130D-04 0.157D-04-0.135D-04-0.167D-03 0.128D-03
 Coeff-Com: -0.301D-03 0.174D-02 0.477D-02 0.926D-02-0.729D-01-0.623D-01
 Coeff-Com:  0.303D+00 0.686D+00-0.166D+01-0.269D+01 0.328D+01 0.120D+01
 Coeff:      0.106D-04-0.130D-04 0.157D-04-0.135D-04-0.167D-03 0.128D-03
 Coeff:     -0.301D-03 0.174D-02 0.477D-02 0.926D-02-0.729D-01-0.623D-01
 Coeff:      0.303D+00 0.686D+00-0.166D+01-0.269D+01 0.328D+01 0.120D+01
 Gap=     0.234 Goal=   None    Shift=    0.000
 Gap=     0.069 Goal=   None    Shift=    0.000
 RMSDP=1.63D-06 MaxDP=4.51D-05 DE=-5.93D-09 OVMax= 4.51D-04

 Cycle  19  Pass 1  IDiag  1:
 RMSU=  4.80D-07    CP:  9.40D-01  2.79D+00  9.00D-01  9.42D-01  1.17D+00
                    CP:  1.12D+00  1.47D+00  1.08D+00  1.23D+00  1.44D+00
                    CP:  1.98D+00  3.00D+00  3.00D+00  3.00D+00  3.00D+00
                    CP:  3.00D+00  3.00D+00  1.81D+00
 E= -529.187170619466     Delta-E=       -0.000000002479 Rises=F Damp=F
 DIIS: error= 5.67D-07 at cycle  19 NSaved=  19.
 NSaved=19 IEnMin=19 EnMin= -529.187170619466     IErMin=19 ErrMin= 5.67D-07
 ErrMax= 5.67D-07  0.00D+00 EMaxC= 1.00D-01 BMatC= 5.60D-11 BMatP= 1.40D-10
 IDIUse=1 WtCom= 1.00D+00 WtEn= 0.00D+00
 Coeff-Com: -0.515D-05 0.768D-05 0.407D-04 0.800D-04 0.201D-03-0.228D-03
 Coeff-Com: -0.108D-02-0.261D-02 0.583D-02 0.112D-01 0.129D-01-0.317D-01
 Coeff-Com: -0.308D+00 0.584D+00 0.105D+01-0.259D+00-0.194D+01 0.828D+00
 Coeff-Com:  0.105D+01
 Coeff:     -0.515D-05 0.768D-05 0.407D-04 0.800D-04 0.201D-03-0.228D-03
 Coeff:     -0.108D-02-0.261D-02 0.583D-02 0.112D-01 0.129D-01-0.317D-01
 Coeff:     -0.308D+00 0.584D+00 0.105D+01-0.259D+00-0.194D+01 0.828D+00
 Coeff:      0.105D+01
 Gap=     0.234 Goal=   None    Shift=    0.000
 Gap=     0.069 Goal=   None    Shift=    0.000
 RMSDP=1.13D-06 MaxDP=3.20D-05 DE=-2.48D-09 OVMax= 3.18D-04

 Cycle  20  Pass 1  IDiag  1:
 RMSU=  6.74D-08    CP:  9.40D-01  2.79D+00  9.00D-01  9.42D-01  1.17D+00
                    CP:  1.12D+00  1.47D+00  1.08D+00  1.23D+00  1.45D+00
                    CP:  2.09D+00  3.00D+00  3.00D+00  3.00D+00  3.00D+00
                    CP:  3.00D+00  3.00D+00  2.37D+00  1.75D+00
 E= -529.187170620404     Delta-E=       -0.000000000937 Rises=F Damp=F
 DIIS: error= 3.19D-07 at cycle  20 NSaved=  20.
 NSaved=20 IEnMin=20 EnMin= -529.187170620404     IErMin=20 ErrMin= 3.19D-07
 ErrMax= 3.19D-07  0.00D+00 EMaxC= 1.00D-01 BMatC= 1.85D-11 BMatP= 5.60D-11
 IDIUse=1 WtCom= 1.00D+00 WtEn= 0.00D+00
 Coeff-Com:  0.183D-05-0.339D-05-0.145D-04-0.216D-04 0.110D-05-0.142D-04
 Coeff-Com:  0.414D-03 0.176D-03-0.317D-02-0.597D-02 0.224D-01 0.365D-01
 Coeff-Com: -0.377D-01-0.396D+00 0.446D+00 0.705D+00-0.505D+00-0.883D+00
 Coeff-Com:  0.951D-01 0.153D+01
 Coeff:      0.183D-05-0.339D-05-0.145D-04-0.216D-04 0.110D-05-0.142D-04
 Coeff:      0.414D-03 0.176D-03-0.317D-02-0.597D-02 0.224D-01 0.365D-01
 Coeff:     -0.377D-01-0.396D+00 0.446D+00 0.705D+00-0.505D+00-0.883D+00
 Coeff:      0.951D-01 0.153D+01
 Gap=     0.234 Goal=   None    Shift=    0.000
 Gap=     0.069 Goal=   None    Shift=    0.000
 RMSDP=8.73D-07 MaxDP=2.59D-05 DE=-9.37D-10 OVMax= 2.42D-04

 Cycle  21  Pass 1  IDiag  1:
 Restarting incremental Fock formation.
 E= -529.187170620642     Delta-E=       -0.000000000238 Rises=F Damp=F
 DIIS: error= 8.76D-08 at cycle  21 NSaved=  20.
 NSaved=20 IEnMin=20 EnMin= -529.187170620642     IErMin=20 ErrMin= 8.76D-08
 ErrMax= 8.76D-08  0.00D+00 EMaxC= 1.00D-01 BMatC= 1.44D-12 BMatP= 1.85D-11
 IDIUse=1 WtCom= 1.00D+00 WtEn= 0.00D+00
 Coeff-Com:  0.119D-07-0.303D-05-0.565D-05-0.138D-04 0.610D-05 0.101D-03
 Coeff-Com:  0.267D-03-0.109D-02-0.162D-02 0.244D-02 0.100D-01 0.260D-01
 Coeff-Com: -0.155D+00-0.969D-02 0.187D+00 0.163D+00-0.346D+00-0.101D+00
 Coeff-Com:  0.350D+00 0.876D+00
 Coeff:      0.119D-07-0.303D-05-0.565D-05-0.138D-04 0.610D-05 0.101D-03
 Coeff:      0.267D-03-0.109D-02-0.162D-02 0.244D-02 0.100D-01 0.260D-01
 Coeff:     -0.155D+00-0.969D-02 0.187D+00 0.163D+00-0.346D+00-0.101D+00
 Coeff:      0.350D+00 0.876D+00
 Gap=     0.234 Goal=   None    Shift=    0.000
 Gap=     0.069 Goal=   None    Shift=    0.000
 RMSDP=7.71D-08 MaxDP=2.66D-06 DE=-2.38D-10 OVMax= 2.01D-05

 Cycle  22  Pass 1  IDiag  1:
 RMSU=  7.65D-08    CP:  1.00D+00
 E= -529.187170620638     Delta-E=        0.000000000004 Rises=F Damp=F
 DIIS: error= 5.43D-08 at cycle  22 NSaved=  20.
 NSaved=20 IEnMin=19 EnMin= -529.187170620642     IErMin=20 ErrMin= 5.43D-08
 ErrMax= 5.43D-08  0.00D+00 EMaxC= 1.00D-01 BMatC= 1.01D-12 BMatP= 1.44D-12
 IDIUse=1 WtCom= 1.00D+00 WtEn= 0.00D+00
 Coeff-Com:  0.417D-06-0.581D-06-0.834D-05 0.849D-05-0.108D-04 0.144D-03
 Coeff-Com: -0.889D-04 0.835D-04-0.281D-02-0.702D-03 0.243D-01-0.209D-01
 Coeff-Com: -0.102D+00-0.353D-01 0.197D+00-0.394D-01-0.735D-01-0.949D-01
 Coeff-Com:  0.521D+00 0.627D+00
 Coeff:      0.417D-06-0.581D-06-0.834D-05 0.849D-05-0.108D-04 0.144D-03
 Coeff:     -0.889D-04 0.835D-04-0.281D-02-0.702D-03 0.243D-01-0.209D-01
 Coeff:     -0.102D+00-0.353D-01 0.197D+00-0.394D-01-0.735D-01-0.949D-01
 Coeff:      0.521D+00 0.627D+00
 Gap=     0.234 Goal=   None    Shift=    0.000
 Gap=     0.069 Goal=   None    Shift=    0.000
 RMSDP=1.35D-07 MaxDP=3.88D-06 DE= 4.21D-12 OVMax= 3.73D-05

 Cycle  23  Pass 1  IDiag  1:
 RMSU=  4.45D-08    CP:  1.00D+00 -6.59D-01
 E= -529.187170620645     Delta-E=       -0.000000000008 Rises=F Damp=F
 DIIS: error= 7.67D-09 at cycle  23 NSaved=  20.
 NSaved=20 IEnMin=20 EnMin= -529.187170620645     IErMin=20 ErrMin= 7.67D-09
 ErrMax= 7.67D-09  0.00D+00 EMaxC= 1.00D-01 BMatC= 4.13D-14 BMatP= 1.01D-12
 IDIUse=1 WtCom= 1.00D+00 WtEn= 0.00D+00
 Coeff-Com: -0.111D-05-0.349D-05 0.120D-05 0.291D-05 0.335D-04 0.771D-04
 Coeff-Com:  0.714D-04-0.102D-02-0.122D-02 0.350D-02 0.993D-02-0.147D-01
 Coeff-Com: -0.279D-01 0.208D-01 0.366D-01-0.414D-02-0.731D-01-0.375D-02
 Coeff-Com:  0.174D+00 0.881D+00
 Coeff:     -0.111D-05-0.349D-05 0.120D-05 0.291D-05 0.335D-04 0.771D-04
 Coeff:      0.714D-04-0.102D-02-0.122D-02 0.350D-02 0.993D-02-0.147D-01
 Coeff:     -0.279D-01 0.208D-01 0.366D-01-0.414D-02-0.731D-01-0.375D-02
 Coeff:      0.174D+00 0.881D+00
 Gap=     0.234 Goal=   None    Shift=    0.000
 Gap=     0.069 Goal=   None    Shift=    0.000
 RMSDP=1.26D-08 MaxDP=4.20D-07 DE=-7.62D-12 OVMax= 3.36D-06

 Cycle  24  Pass 1  IDiag  1:
 RMSU=  3.34D-09    CP:  1.00D+00 -5.04D-01  9.41D-01
 E= -529.187170620645     Delta-E=        0.000000000000 Rises=F Damp=F
 DIIS: error= 3.45D-09 at cycle  24 NSaved=  20.
 NSaved=20 IEnMin=19 EnMin= -529.187170620645     IErMin=20 ErrMin= 3.45D-09
 ErrMax= 3.45D-09  0.00D+00 EMaxC= 1.00D-01 BMatC= 3.12D-15 BMatP= 4.13D-14
 IDIUse=1 WtCom= 1.00D+00 WtEn= 0.00D+00
 Coeff-Com:  0.101D-05 0.109D-05-0.225D-05-0.548D-05 0.221D-04 0.359D-04
 Coeff-Com: -0.459D-04-0.203D-03-0.386D-04 0.389D-02-0.101D-02-0.897D-02
 Coeff-Com: -0.846D-03 0.118D-01 0.493D-02-0.808D-02-0.319D-01-0.111D-01
 Coeff-Com:  0.121D+00 0.920D+00
 Coeff:      0.101D-05 0.109D-05-0.225D-05-0.548D-05 0.221D-04 0.359D-04
 Coeff:     -0.459D-04-0.203D-03-0.386D-04 0.389D-02-0.101D-02-0.897D-02
 Coeff:     -0.846D-03 0.118D-01 0.493D-02-0.808D-02-0.319D-01-0.111D-01
 Coeff:      0.121D+00 0.920D+00
 Gap=     0.234 Goal=   None    Shift=    0.000
 Gap=     0.069 Goal=   None    Shift=    0.000
 RMSDP=9.20D-10 MaxDP=3.03D-08 DE= 1.14D-13 OVMax= 1.56D-07

 SCF Done:  E(UPBE1PBE) =  -529.187170621     A.U. after   24 cycles
            NFock= 24  Conv=0.92D-09     -V/T= 2.0029
 <Sx>= 0.0000 <Sy>= 0.0000 <Sz>= 0.5000 <S**2>= 0.7639 S= 0.5069
 <L.S>=  0.00000000000    
 KE= 5.276769409518D+02 PE=-2.102678194552D+03 EE= 6.115422010268D+02
 Annihilation of the first spin contaminant:
 S**2 before annihilation     0.7639,   after     0.7501
 Leave Link  502 at Wed Jan 29 15:52:40 2025, MaxMem=   104857600 cpu:             133.3 elap:             133.6
 (Enter /sw/cluster/pub/apps//g16/l601.exe)
 Copying SCF densities to generalized density rwf, IOpCl= 1 IROHF=0.

 **********************************************************************

            Population analysis using the SCF density.

 **********************************************************************

 Alpha  occ. eigenvalues --  -25.05239 -25.01253 -25.01221 -10.61179 -10.57573
 Alpha  occ. eigenvalues --  -10.57542 -10.51145 -10.47978 -10.47952  -1.53472
 Alpha  occ. eigenvalues --   -1.49515  -1.49256  -1.16864  -1.05485  -1.03208
 Alpha  occ. eigenvalues --   -0.91402  -0.90423  -0.83294  -0.80411  -0.80047
 Alpha  occ. eigenvalues --   -0.77397  -0.75139  -0.73047  -0.71088  -0.70953
 Alpha  occ. eigenvalues --   -0.68985  -0.68561  -0.64353  -0.62218  -0.62190
 Alpha  occ. eigenvalues --   -0.62130  -0.53699  -0.50335
 Alpha virt. eigenvalues --   -0.26895  -0.24662  -0.19619  -0.14200  -0.10681
 Alpha virt. eigenvalues --   -0.09667  -0.09469  -0.09305  -0.08457  -0.08349
 Alpha virt. eigenvalues --   -0.06632  -0.05108  -0.04439  -0.04200  -0.03205
 Alpha virt. eigenvalues --   -0.02097  -0.01077  -0.00497  -0.00123  -0.00068
 Alpha virt. eigenvalues --    0.00576   0.00767   0.00935   0.01336   0.03994
 Alpha virt. eigenvalues --    0.04539   0.05786   0.07046   0.07249   0.08072
 Alpha virt. eigenvalues --    0.08472   0.09523   0.09900   0.11070   0.11774
 Alpha virt. eigenvalues --    0.14293   0.15300   0.15446   0.17115   0.18242
 Alpha virt. eigenvalues --    0.18603   0.19285   0.21396   0.21744   0.23634
 Alpha virt. eigenvalues --    0.24210   0.25769   0.25907   0.28342   0.29213
 Alpha virt. eigenvalues --    0.30011   0.32021   0.33183   0.35635   0.35897
 Alpha virt. eigenvalues --    0.36051   0.36691   0.37897   0.38069   0.39896
 Alpha virt. eigenvalues --    0.41141   0.42176   0.42380   0.48752   0.50507
 Alpha virt. eigenvalues --    0.51093   0.55875   0.56348   0.58854   0.59887
 Alpha virt. eigenvalues --    0.63429   0.67128   0.68158   0.68678   0.71910
 Alpha virt. eigenvalues --    0.72335   0.73304   0.75877   0.76777   0.81389
 Alpha virt. eigenvalues --    0.83508   0.85852   0.86343   0.87015   0.94216
 Alpha virt. eigenvalues --    0.95027   1.06941   1.12026   1.19975   1.21022
 Alpha virt. eigenvalues --    1.22066   1.25296   1.25695   1.25987   1.27453
 Alpha virt. eigenvalues --    1.30934   1.34084   1.34290   1.34879   1.35866
 Alpha virt. eigenvalues --    1.38005   1.38101   1.38399   1.43243   1.47179
 Alpha virt. eigenvalues --    1.50061   1.55544   1.57899   1.60177   1.63827
 Alpha virt. eigenvalues --    1.65888   1.68144   1.69698   1.74177   1.74829
 Alpha virt. eigenvalues --    1.77319   1.80861   1.82727   1.89037   1.93031
 Alpha virt. eigenvalues --    1.94309   1.98382   2.02337   2.06425   2.09584
 Alpha virt. eigenvalues --    2.16945   2.27018   2.31402   2.36462   2.50566
 Alpha virt. eigenvalues --    2.51146   2.51568   2.51871   2.53773   2.54321
 Alpha virt. eigenvalues --    2.56607   2.58635   2.62239   2.65342   2.84006
 Alpha virt. eigenvalues --    2.89980   2.90972   2.97154   2.98956   3.13798
 Alpha virt. eigenvalues --    3.15301   3.28998   3.41913   3.48739   3.54442
 Alpha virt. eigenvalues --    3.56665   3.58381   3.58664   3.62965   3.67664
 Alpha virt. eigenvalues --    3.73578   3.77200   3.79504   3.79916   3.82438
 Alpha virt. eigenvalues --    3.84170   3.91065   3.95092   4.01479   4.54866
 Alpha virt. eigenvalues --    4.62739   4.69312   4.77303   6.09576   6.15573
 Alpha virt. eigenvalues --    6.17441   6.20250   6.28381   6.33775   6.44803
 Alpha virt. eigenvalues --    6.62927   6.68968  23.31553  23.73544  23.75530
 Alpha virt. eigenvalues --   23.87265  23.94450  24.04105  66.67797  66.73419
 Alpha virt. eigenvalues --   66.75765
  Beta  occ. eigenvalues --  -25.04814 -25.01149 -25.01120 -10.60456 -10.57490
  Beta  occ. eigenvalues --  -10.57465 -10.50571 -10.48000 -10.47979  -1.52583
  Beta  occ. eigenvalues --   -1.49298  -1.48984  -1.15706  -1.03562  -1.03004
  Beta  occ. eigenvalues --   -0.90866  -0.89681  -0.82961  -0.80103  -0.79749
  Beta  occ. eigenvalues --   -0.74975  -0.74468  -0.72702  -0.70379  -0.69305
  Beta  occ. eigenvalues --   -0.68678  -0.68378  -0.64173  -0.61946  -0.61890
  Beta  occ. eigenvalues --   -0.59251  -0.49893
  Beta virt. eigenvalues --   -0.42973  -0.23212  -0.22818  -0.19030  -0.14043
  Beta virt. eigenvalues --   -0.10651  -0.09245  -0.09160  -0.09043  -0.08197
  Beta virt. eigenvalues --   -0.06474  -0.06385  -0.04692  -0.04405  -0.04117
  Beta virt. eigenvalues --   -0.02772  -0.01886  -0.01060  -0.00085  -0.00038
  Beta virt. eigenvalues --    0.00351   0.00666   0.01074   0.01286   0.01392
  Beta virt. eigenvalues --    0.04054   0.04923   0.05949   0.07213   0.07349
  Beta virt. eigenvalues --    0.08475   0.08629   0.09829   0.10031   0.11559
  Beta virt. eigenvalues --    0.12029   0.14390   0.15398   0.15756   0.17278
  Beta virt. eigenvalues --    0.18459   0.18840   0.19364   0.21458   0.21805
  Beta virt. eigenvalues --    0.23784   0.24285   0.26018   0.26029   0.28429
  Beta virt. eigenvalues --    0.29297   0.31095   0.32375   0.33406   0.35741
  Beta virt. eigenvalues --    0.36851   0.37055   0.37795   0.38044   0.38135
  Beta virt. eigenvalues --    0.40019   0.41214   0.42625   0.43728   0.48998
  Beta virt. eigenvalues --    0.51340   0.51355   0.56422   0.56821   0.59632
  Beta virt. eigenvalues --    0.60052   0.63581   0.67806   0.68318   0.68764
  Beta virt. eigenvalues --    0.72675   0.73483   0.73489   0.76905   0.77610
  Beta virt. eigenvalues --    0.81653   0.83804   0.86442   0.86716   0.88952
  Beta virt. eigenvalues --    0.94865   0.96177   1.07641   1.12761   1.20682
  Beta virt. eigenvalues --    1.21248   1.22327   1.25765   1.25772   1.26651
  Beta virt. eigenvalues --    1.27951   1.31274   1.34309   1.34651   1.34992
  Beta virt. eigenvalues --    1.36137   1.38100   1.38572   1.38999   1.44227
  Beta virt. eigenvalues --    1.47339   1.50817   1.56418   1.58125   1.61539
  Beta virt. eigenvalues --    1.65602   1.66662   1.68264   1.70741   1.74365
  Beta virt. eigenvalues --    1.74921   1.77740   1.81138   1.82979   1.89163
  Beta virt. eigenvalues --    1.94610   1.94647   1.99260   2.02536   2.07632
  Beta virt. eigenvalues --    2.09826   2.17068   2.27197   2.31984   2.38304
  Beta virt. eigenvalues --    2.50722   2.51173   2.52176   2.53818   2.53880
  Beta virt. eigenvalues --    2.54591   2.56684   2.58782   2.64735   2.65577
  Beta virt. eigenvalues --    2.85495   2.90354   2.91345   2.97326   2.99199
  Beta virt. eigenvalues --    3.14257   3.15464   3.29450   3.42213   3.49149
  Beta virt. eigenvalues --    3.55559   3.57377   3.58688   3.59037   3.63676
  Beta virt. eigenvalues --    3.67980   3.74567   3.77576   3.79820   3.80029
  Beta virt. eigenvalues --    3.83105   3.84933   3.91725   3.95182   4.01654
  Beta virt. eigenvalues --    4.55217   4.63670   4.69463   4.77614   6.10814
  Beta virt. eigenvalues --    6.15988   6.18303   6.20461   6.28451   6.33939
  Beta virt. eigenvalues --    6.45007   6.63022   6.69211  23.31846  23.73639
  Beta virt. eigenvalues --   23.76047  23.87702  23.94459  24.04285  66.68076
  Beta virt. eigenvalues --   66.73505  66.75933
          Condensed to atoms (all electrons):
               1          2          3          4          5          6
     1  C    8.184851  -2.057167   1.629875  -1.398542   1.630433  -2.057079
     2  C   -2.057167  11.012226  -1.079204  -1.841887  -2.941032   2.528346
     3  C    1.629875  -1.079204  12.109355  -1.448369  -2.311462  -2.939207
     4  C   -1.398542  -1.841887  -1.448369  13.454844  -1.451653  -1.843565
     5  C    1.630433  -2.941032  -2.311462  -1.451653  12.115364  -1.081158
     6  C   -2.057079   2.528346  -2.939207  -1.843565  -1.081158  11.014634
     7  H    0.460976  -0.183749   0.093134   0.020808   0.093167  -0.183752
     8  H   -0.076534   0.533639  -0.142676  -0.046126  -0.029578   0.074072
     9  H   -0.076475   0.074089  -0.029551  -0.046140  -0.142729   0.533681
    10  F    0.026998  -0.288306   0.639376  -0.260849  -0.011309  -0.014110
    11  F   -0.010884  -0.052281  -0.253584   0.728711  -0.253640  -0.052261
    12  F    0.026982  -0.014105  -0.011249  -0.260893   0.639673  -0.288367
               7          8          9         10         11         12
     1  C    0.460976  -0.076534  -0.076475   0.026998  -0.010884   0.026982
     2  C   -0.183749   0.533639   0.074089  -0.288306  -0.052281  -0.014105
     3  C    0.093134  -0.142676  -0.029551   0.639376  -0.253584  -0.011249
     4  C    0.020808  -0.046126  -0.046140  -0.260849   0.728711  -0.260893
     5  C    0.093167  -0.029578  -0.142729  -0.011309  -0.253640   0.639673
     6  C   -0.183752   0.074072   0.533681  -0.014110  -0.052261  -0.288367
     7  H    0.382732  -0.007350  -0.007351   0.002162   0.000108   0.002160
     8  H   -0.007350   0.393817   0.002749  -0.025737   0.000062  -0.000051
     9  H   -0.007351   0.002749   0.393862  -0.000051   0.000063  -0.025745
    10  F    0.002162  -0.025737  -0.000051   8.991502   0.008766   0.000429
    11  F    0.000108   0.000062   0.000063   0.008766   8.929081   0.008791
    12  F    0.002160  -0.000051  -0.025745   0.000429   0.008791   8.990754
          Atomic-Atomic Spin Densities.
               1          2          3          4          5          6
     1  C    0.290141   0.155489  -0.102301   0.076746  -0.102657   0.155017
     2  C    0.155489  -0.193373   0.104839  -0.118819   0.109466  -0.139831
     3  C   -0.102301   0.104839  -0.110484   0.168020  -0.058923   0.109377
     4  C    0.076746  -0.118819   0.168020   0.262306   0.168956  -0.118745
     5  C   -0.102657   0.109466  -0.058923   0.168956  -0.107809   0.105733
     6  C    0.155017  -0.139831   0.109377  -0.118745   0.105733  -0.197284
     7  H   -0.016363   0.011872  -0.005950   0.003890  -0.005980   0.011881
     8  H    0.001918  -0.003425   0.004593  -0.001928   0.000508  -0.001686
     9  H    0.001977  -0.001740   0.000539  -0.001969   0.004728  -0.003539
    10  F    0.005990  -0.006443  -0.001407  -0.010330   0.004936  -0.004755
    11  F   -0.004464   0.006934  -0.007778  -0.054762  -0.007865   0.006948
    12  F    0.005949  -0.004712   0.004872  -0.010293  -0.002027  -0.006372
               7          8          9         10         11         12
     1  C   -0.016363   0.001918   0.001977   0.005990  -0.004464   0.005949
     2  C    0.011872  -0.003425  -0.001740  -0.006443   0.006934  -0.004712
     3  C   -0.005950   0.004593   0.000539  -0.001407  -0.007778   0.004872
     4  C    0.003890  -0.001928  -0.001969  -0.010330  -0.054762  -0.010293
     5  C   -0.005980   0.000508   0.004728   0.004936  -0.007865  -0.002027
     6  C    0.011881  -0.001686  -0.003539  -0.004755   0.006948  -0.006372
     7  H   -0.023800   0.000334   0.000340   0.000152  -0.000025   0.000152
     8  H    0.000334  -0.002012   0.000096   0.000002   0.000108  -0.000061
     9  H    0.000340   0.000096  -0.001844  -0.000061   0.000110  -0.000006
    10  F    0.000152   0.000002  -0.000061   0.032710   0.001602   0.000024
    11  F   -0.000025   0.000108   0.000110   0.001602   0.156532   0.001616
    12  F    0.000152  -0.000061  -0.000006   0.000024   0.001616   0.033922
 Mulliken charges and spin densities:
               1          2
     1  C   -0.283433   0.467442
     2  C    0.309430  -0.079742
     3  C   -0.256438   0.105395
     4  C    0.393662   0.363073
     5  C   -0.256076   0.109066
     6  C    0.308766  -0.083255
     7  H    0.326955  -0.023497
     8  H    0.323712  -0.001552
     9  H    0.323600  -0.001369
    10  F   -0.068869   0.022420
    11  F   -0.052931   0.098955
    12  F   -0.068378   0.023065
 Sum of Mulliken charges =   1.00000   1.00000
 Mulliken charges and spin densities with hydrogens summed into heavy atoms:
               1          2
     1  C    0.043522   0.443945
     2  C    0.633142  -0.081295
     3  C   -0.256438   0.105395
     4  C    0.393662   0.363073
     5  C   -0.256076   0.109066
     6  C    0.632366  -0.084624
    10  F   -0.068869   0.022420
    11  F   -0.052931   0.098955
    12  F   -0.068378   0.023065
 Electronic spatial extent (au):  <R**2>=           1113.1449
 Charge=              1.0000 electrons
 Dipole moment (field-independent basis, Debye):
    X=              1.6820    Y=              0.9744    Z=              0.0000  Tot=              1.9439
 Quadrupole moment (field-independent basis, Debye-Ang):
   XX=            -36.2778   YY=            -38.2672   ZZ=            -46.1017
   XY=              1.6950   XZ=             -0.0000   YZ=             -0.0000
 Traceless Quadrupole moment (field-independent basis, Debye-Ang):
   XX=              3.9378   YY=              1.9484   ZZ=             -5.8862
   XY=              1.6950   XZ=             -0.0000   YZ=             -0.0000
 Octapole moment (field-independent basis, Debye-Ang**2):
  XXX=             76.9945  YYY=             50.7021  ZZZ=             -0.0000  XYY=             25.6622
  XXY=              8.6088  XXZ=             -0.0000  XZZ=             17.8325  YZZ=             10.2966
  YYZ=             -0.0000  XYZ=              0.0000
 Hexadecapole moment (field-independent basis, Debye-Ang**3):
 XXXX=           -519.1763 YYYY=           -528.2889 ZZZZ=            -41.1766 XXXY=              6.4517
 XXXZ=              0.0000 YYYX=              1.2713 YYYZ=              0.0000 ZZZX=              0.0000
 ZZZY=              0.0000 XXYY=           -172.5565 XXZZ=            -98.8753 YYZZ=           -100.0572
 XXYZ=              0.0000 YYXZ=              0.0000 ZZXY=              1.0019
 N-N= 4.342718819530D+02 E-N=-2.102678194482D+03  KE= 5.276769409518D+02
                          Isotropic Fermi Contact Couplings
        Atom                 a.u.       MegaHertz       Gauss      10(-4) cm-1
     1  C(13)              0.01843      20.72175       7.39404       6.91203
     2  C(13)             -0.01209     -13.58651      -4.84801      -4.53197
     3  C(13)             -0.01179     -13.25341      -4.72915      -4.42086
     4  C(13)              0.01868      21.00141       7.49382       7.00532
     5  C(13)             -0.01152     -12.94878      -4.62045      -4.31925
     6  C(13)             -0.01231     -13.84112      -4.93886      -4.61690
     7  H(1)              -0.00585     -26.12988      -9.32379      -8.71599
     8  H(1)              -0.00028      -1.23966      -0.44234      -0.41351
     9  H(1)              -0.00023      -1.03952      -0.37093      -0.34675
    10  F(19)              0.00346      14.57000       5.19894       4.86003
    11  F(19)              0.02143      90.18309      32.17957      30.08184
    12  F(19)              0.00362      15.24295       5.43907       5.08450
 --------------------------------------------------------
       Center         ----  Spin Dipole Couplings  ----
                      3XX-RR        3YY-RR        3ZZ-RR
 --------------------------------------------------------
     1   Atom       -0.210321     -0.214580      0.424901
     2   Atom       -0.004879      0.002229      0.002651
     3   Atom       -0.043019     -0.041092      0.084111
     4   Atom       -0.280143     -0.281407      0.561550
     5   Atom       -0.052032     -0.036191      0.088223
     6   Atom        0.001448     -0.000532     -0.000916
     7   Atom        0.017558     -0.012743     -0.004815
     8   Atom        0.000308      0.004925     -0.005233
     9   Atom       -0.001509      0.006749     -0.005240
    10   Atom       -0.109840     -0.105764      0.215604
    11   Atom       -0.456458     -0.438650      0.895108
    12   Atom       -0.110935     -0.111076      0.222011
 --------------------------------------------------------
                        XY            XZ            YZ
 --------------------------------------------------------
     1   Atom        0.003766      0.000000      0.000000
     2   Atom       -0.000949      0.000000      0.000000
     3   Atom       -0.009671      0.000000     -0.000000
     4   Atom        0.001226     -0.000000     -0.000000
     5   Atom       -0.005715      0.000000      0.000000
     6   Atom       -0.003506      0.000000      0.000000
     7   Atom        0.026361      0.000000      0.000000
     8   Atom       -0.006349     -0.000000      0.000000
     9   Atom       -0.005086      0.000000     -0.000000
    10   Atom       -0.000973      0.000000      0.000000
    11   Atom       -0.015374     -0.000000     -0.000000
    12   Atom       -0.002098      0.000000      0.000000
 --------------------------------------------------------


 ---------------------------------------------------------------------------------
              Anisotropic Spin Dipole Couplings in Principal Axis System
 ---------------------------------------------------------------------------------

       Atom             a.u.   MegaHertz   Gauss  10(-4) cm-1        Axes

              Baa    -0.2168   -29.089   -10.380    -9.703 -0.5039  0.8638  0.0000
     1 C(13)  Bbb    -0.2081   -27.928    -9.966    -9.316  0.8638  0.5039 -0.0000
              Bcc     0.4249    57.018    20.345    19.019  0.0000  0.0000  1.0000
 
              Baa    -0.0050    -0.671    -0.240    -0.224  0.9915  0.1302 -0.0000
     2 C(13)  Bbb     0.0024     0.316     0.113     0.105 -0.1302  0.9915 -0.0000
              Bcc     0.0027     0.356     0.127     0.119  0.0000  0.0000  1.0000
 
              Baa    -0.0518    -6.948    -2.479    -2.317  0.7413  0.6711 -0.0000
     3 C(13)  Bbb    -0.0323    -4.339    -1.548    -1.447 -0.6711  0.7413  0.0000
              Bcc     0.0841    11.287     4.027     3.765  0.0000 -0.0000  1.0000
 
              Baa    -0.2822   -37.862   -13.510   -12.630 -0.5206  0.8538 -0.0000
     4 C(13)  Bbb    -0.2794   -37.492   -13.378   -12.506  0.8538  0.5206  0.0000
              Bcc     0.5615    75.355    26.888    25.136 -0.0000 -0.0000  1.0000
 
              Baa    -0.0539    -7.230    -2.580    -2.412  0.9516  0.3075 -0.0000
     5 C(13)  Bbb    -0.0343    -4.609    -1.644    -1.537 -0.3075  0.9516 -0.0000
              Bcc     0.0882    11.839     4.224     3.949  0.0000  0.0000  1.0000
 
              Baa    -0.0032    -0.427    -0.153    -0.143  0.6034  0.7974 -0.0000
     6 C(13)  Bbb    -0.0009    -0.123    -0.044    -0.041  0.0000  0.0000  1.0000
              Bcc     0.0041     0.550     0.196     0.184  0.7974 -0.6034  0.0000
 
              Baa    -0.0280   -14.938    -5.330    -4.983 -0.5009  0.8655 -0.0000
     7 H(1)   Bbb    -0.0048    -2.569    -0.917    -0.857 -0.0000 -0.0000  1.0000
              Bcc     0.0328    17.507     6.247     5.840  0.8655  0.5009  0.0000
 
              Baa    -0.0052    -2.792    -0.996    -0.931  0.0000  0.0000  1.0000
     8 H(1)   Bbb    -0.0041    -2.209    -0.788    -0.737  0.8191  0.5737 -0.0000
              Bcc     0.0094     5.001     1.784     1.668 -0.5737  0.8191  0.0000
 
              Baa    -0.0052    -2.796    -0.998    -0.933  0.0000  0.0000  1.0000
     9 H(1)   Bbb    -0.0039    -2.097    -0.748    -0.700  0.9029  0.4300 -0.0000
              Bcc     0.0092     4.893     1.746     1.632 -0.4300  0.9029 -0.0000
 
              Baa    -0.1101   -55.275   -19.724   -18.438  0.9753  0.2209 -0.0000
    10 F(19)  Bbb    -0.1055   -53.007   -18.914   -17.681 -0.2209  0.9753  0.0000
              Bcc     0.2156   108.282    38.638    36.119  0.0000  0.0000  1.0000
 
              Baa    -0.4653  -233.696   -83.388   -77.952  0.8664  0.4994  0.0000
    11 F(19)  Bbb    -0.4298  -215.850   -77.021   -72.000 -0.4994  0.8664 -0.0000
              Bcc     0.8951   449.546   160.409   149.952 -0.0000 -0.0000  1.0000
 
              Baa    -0.1131   -56.804   -20.269   -18.948  0.6951  0.7189 -0.0000
    12 F(19)  Bbb    -0.1089   -54.696   -19.517   -18.244  0.7189 -0.6951  0.0000
              Bcc     0.2220   111.499    39.786    37.192  0.0000  0.0000  1.0000
 

 ---------------------------------------------------------------------------------

 No NMR shielding tensors so no spin-rotation constants.
 Leave Link  601 at Wed Jan 29 15:52:40 2025, MaxMem=   104857600 cpu:               0.1 elap:               0.1
 (Enter /sw/cluster/pub/apps//g16/l701.exe)
 ... and contract with generalized density number  0.
 Compute integral first derivatives.
 Leave Link  701 at Wed Jan 29 15:52:40 2025, MaxMem=   104857600 cpu:               0.1 elap:               0.1
 (Enter /sw/cluster/pub/apps//g16/l702.exe)
 L702 exits ... SP integral derivatives will be done elsewhere.
 Leave Link  702 at Wed Jan 29 15:52:40 2025, MaxMem=   104857600 cpu:               0.0 elap:               0.0
 (Enter /sw/cluster/pub/apps//g16/l703.exe)
 Integral derivatives from FoFJK, PRISM(SPDF).
 Compute integral first derivatives, UseDBF=F ICtDFT=           0.
 Calling FoFJK, ICntrl=      2127 FMM=F ISym2X=0 I1Cent= 0 IOpClX= 1 NMat=1 NMatS=1 NMatT=0.
 FoFJK:  IHMeth= 1 ICntrl=    2127 DoSepK=F KAlg= 0 I1Cent=           0 FoldK=F
 IRaf=         0 NMat=       1 IRICut=       1 DoRegI=T DoRafI=F ISym2E= 0 IDoP0=0 IntGTp=1.
 FoFCou: FMM=F IPFlag=           0 FMFlag=      100000 FMFlg1=         800
         NFxFlg=           0 DoJE=F BraDBF=F KetDBF=F FulRan=T
         wScrn=  0.000000 ICntrl=      2127 IOpCl=  1 I1Cent=           0 NGrid=           0
         NMat0=    1 NMatS0=      1 NMatT0=    0 NMatD0=    1 NMtDS0=    0 NMtDT0=    0
 Symmetry not used in FoFCou.
 Leave Link  703 at Wed Jan 29 15:52:57 2025, MaxMem=   104857600 cpu:              16.5 elap:              16.6
 (Enter /sw/cluster/pub/apps//g16/l716.exe)
 Dipole        = 6.61764643D-01 3.83347015D-01 6.02671119D-10
 -------------------------------------------------------------------
 Center     Atomic                   Forces (Hartrees/Bohr)
 Number     Number              X              Y              Z
 -------------------------------------------------------------------
      1        6           0.008989450    0.005533755   -0.000000000
      2        6          -0.011793398   -0.030443325    0.000000000
      3        6           0.050407940   -0.044184720    0.000000000
      4        6          -0.061245222   -0.035635473   -0.000000000
      5        6          -0.013160649    0.066027341    0.000000000
      6        6          -0.031901418    0.004970935    0.000000000
      7        1           0.001299680    0.000751201    0.000000000
      8        1           0.000293403   -0.000951014   -0.000000000
      9        1          -0.000670121    0.000728265   -0.000000000
     10        9          -0.003196932    0.027898476   -0.000000000
     11        9           0.038292292    0.022068704    0.000000000
     12        9           0.022684976   -0.016764145   -0.000000000
 -------------------------------------------------------------------
 Cartesian Forces:  Max     0.066027341 RMS     0.023457048
 Leave Link  716 at Wed Jan 29 15:52:57 2025, MaxMem=   104857600 cpu:               0.0 elap:               0.0
 (Enter /sw/cluster/pub/apps//g16/l103.exe)

 GradGradGradGradGradGradGradGradGradGradGradGradGradGradGradGradGradGrad
 Berny optimization.
 FormGI is forming the generalized inverse of G from B-inverse, IUseBI=4.
 Internal  Forces:  Max     0.044196458 RMS     0.012568344
 Search for a local minimum.
 Step number   1 out of a maximum of   64
 All quantities printed in internal units (Hartrees-Bohrs-Radians)
 RMS Force = .12568D-01 SwitMx=.10000D-02 MixMth= 1
 Mixed Optimization -- RFO/linear search
 Second derivative matrix not updated -- first step.
 ITU=  0
     Eigenvalues ---    0.02228   0.02237   0.02251   0.02263   0.02266
     Eigenvalues ---    0.02279   0.02281   0.02293   0.02294   0.16000
     Eigenvalues ---    0.16000   0.16000   0.22083   0.23497   0.24910
     Eigenvalues ---    0.25000   0.25000   0.25000   0.35551   0.35595
     Eigenvalues ---    0.35597   0.43245   0.43794   0.47529   0.47569
     Eigenvalues ---    0.48001   0.48624   0.58784   0.58784   0.60039
 RFO step:  Lambda=-1.67093895D-02 EMin= 2.22780542D-02
 Linear search not attempted -- first point.
 Iteration  1 RMS(Cart)=  0.02820019 RMS(Int)=  0.00032830
 Iteration  2 RMS(Cart)=  0.00039152 RMS(Int)=  0.00003086
 Iteration  3 RMS(Cart)=  0.00000015 RMS(Int)=  0.00003086
 ITry= 1 IFail=0 DXMaxC= 8.10D-02 DCOld= 1.00D+10 DXMaxT= 3.00D-01 DXLimC= 3.00D+00 Rises=F
 Variable       Old X    -DE/DX   Delta X   Delta X   Delta X     New X
                                 (Linear)    (Quad)   (Total)
    R1        2.62578   0.02543   0.00000   0.05067   0.05071   2.67649
    R2        2.62573   0.02506   0.00000   0.04992   0.04997   2.67569
    R3        2.04789   0.00150   0.00000   0.00403   0.00403   2.05192
    R4        2.61285  -0.01956   0.00000  -0.03889  -0.03889   2.57396
    R5        2.04720   0.00075   0.00000   0.00201   0.00201   2.04921
    R6        2.62236   0.03548   0.00000   0.07295   0.07290   2.69526
    R7        2.51916  -0.02783   0.00000  -0.04604  -0.04604   2.47312
    R8        2.62247   0.03582   0.00000   0.07367   0.07362   2.69609
    R9        2.50909  -0.04420   0.00000  -0.07162  -0.07162   2.43747
   R10        2.61275  -0.01948   0.00000  -0.03872  -0.03872   2.57403
   R11        2.51915  -0.02796   0.00000  -0.04625  -0.04625   2.47290
   R12        2.04717   0.00075   0.00000   0.00200   0.00200   2.04917
    A1        2.10960   0.01002   0.00000   0.03737   0.03746   2.14707
    A2        2.08679  -0.00501   0.00000  -0.01868  -0.01873   2.06806
    A3        2.08679  -0.00501   0.00000  -0.01869  -0.01874   2.06806
    A4        2.07691  -0.00243   0.00000  -0.01290  -0.01285   2.06406
    A5        2.12902   0.00189   0.00000   0.01026   0.01023   2.13925
    A6        2.07726   0.00054   0.00000   0.00264   0.00262   2.07988
    A7        2.11434  -0.00602   0.00000  -0.02070  -0.02074   2.09360
    A8        2.10386   0.00772   0.00000   0.02800   0.02802   2.13188
    A9        2.06499  -0.00170   0.00000  -0.00730  -0.00728   2.05771
   A10        2.07423   0.00690   0.00000   0.02990   0.02980   2.10403
   A11        2.10476  -0.00347   0.00000  -0.01504  -0.01499   2.08976
   A12        2.10420  -0.00342   0.00000  -0.01486  -0.01481   2.08939
   A13        2.11462  -0.00597   0.00000  -0.02047  -0.02052   2.09411
   A14        2.06462  -0.00171   0.00000  -0.00736  -0.00733   2.05729
   A15        2.10394   0.00768   0.00000   0.02783   0.02785   2.13179
   A16        2.07666  -0.00251   0.00000  -0.01320  -0.01315   2.06351
   A17        2.12917   0.00192   0.00000   0.01036   0.01034   2.13951
   A18        2.07735   0.00059   0.00000   0.00283   0.00281   2.08017
    D1        0.00000   0.00000   0.00000   0.00000  -0.00000   0.00000
    D2        3.14159   0.00000   0.00000   0.00000   0.00000   3.14159
    D3        3.14159   0.00000   0.00000   0.00000   0.00000   3.14159
    D4        0.00000  -0.00000   0.00000  -0.00000   0.00000   0.00000
    D5        0.00000  -0.00000   0.00000  -0.00000   0.00000   0.00000
    D6        3.14159  -0.00000   0.00000  -0.00000   0.00000   3.14159
    D7        3.14159  -0.00000   0.00000  -0.00000   0.00000   3.14159
    D8        0.00000   0.00000   0.00000   0.00000  -0.00000   0.00000
    D9       -0.00000   0.00000   0.00000   0.00000   0.00000   0.00000
   D10        3.14159   0.00000   0.00000  -0.00000   0.00000   3.14159
   D11        3.14159   0.00000   0.00000   0.00000   0.00000   3.14159
   D12        0.00000   0.00000   0.00000   0.00000   0.00000   0.00000
   D13        0.00000  -0.00000   0.00000  -0.00000   0.00000   0.00000
   D14        3.14159   0.00000   0.00000   0.00000   0.00000   3.14159
   D15        3.14159  -0.00000   0.00000  -0.00000   0.00000   3.14159
   D16       -0.00000   0.00000   0.00000   0.00000   0.00000   0.00000
   D17       -0.00000   0.00000   0.00000   0.00000   0.00000   0.00000
   D18        3.14159   0.00000   0.00000   0.00000   0.00000   3.14159
   D19        3.14159  -0.00000   0.00000  -0.00000   0.00000   3.14159
   D20        0.00000  -0.00000   0.00000  -0.00000   0.00000   0.00000
   D21        0.00000  -0.00000   0.00000  -0.00000  -0.00000   0.00000
   D22        3.14159  -0.00000   0.00000  -0.00000   0.00000   3.14159
   D23        3.14159   0.00000   0.00000   0.00000   0.00000   3.14159
   D24        0.00000  -0.00000   0.00000  -0.00000   0.00000   0.00000
         Item               Value     Threshold  Converged?
 Maximum Force            0.044196     0.000450     NO 
 RMS     Force            0.012568     0.000300     NO 
 Maximum Displacement     0.081036     0.001800     NO 
 RMS     Displacement     0.028357     0.001200     NO 
 Predicted change in Energy=-8.645589D-03
 Lowest energy point so far.  Saving SCF results.
 GradGradGradGradGradGradGradGradGradGradGradGradGradGradGradGradGradGrad

 Leave Link  103 at Wed Jan 29 15:52:57 2025, MaxMem=   104857600 cpu:               0.0 elap:               0.0
 (Enter /sw/cluster/pub/apps//g16/l202.exe)
                          Input orientation:                          
 ---------------------------------------------------------------------
 Center     Atomic      Atomic             Coordinates (Angstroms)
 Number     Number       Type             X           Y           Z
 ---------------------------------------------------------------------
      1          6           0        1.176628    0.679612    0.000000
      2          6           0        1.213788   -0.736239   -0.000000
      3          6           0        0.031412   -1.412441   -0.000000
      4          6           0       -1.200270   -0.693268    0.000000
      5          6           0       -1.207035    0.733425   -0.000000
      6          6           0       -0.030450    1.419732   -0.000000
      7          1           0        2.117037    1.222440   -0.000000
      8          1           0        2.142646   -1.295820    0.000000
      9          1           0       -0.050709    2.503918    0.000000
     10          9           0       -0.022986   -2.720029    0.000000
     11          9           0       -2.317487   -1.337903   -0.000000
     12          9           0       -2.366703    1.339740    0.000000
 ---------------------------------------------------------------------
                    Distance matrix (angstroms):
                    1          2          3          4          5
     1  C    0.000000
     2  C    1.416339   0.000000
     3  C    2.384996   1.362080   0.000000
     4  C    2.744895   2.414440   1.426271   0.000000
     5  C    2.384271   2.832013   2.477598   1.426710   0.000000
     6  C    1.415915   2.489245   2.832848   2.415212   1.362119
     7  H    1.085831   2.156915   3.360421   3.830726   3.359850
     8  H    2.198982   1.084393   2.114453   3.396786   3.916402
     9  H    2.198738   3.478156   3.917220   3.397571   2.114648
    10  F    3.605084   2.337741   1.308719   2.343876   3.650797
    11  F    4.034750   3.582164   2.350081   1.289856   2.350213
    12  F    3.604299   4.138792   3.650404   2.343862   1.308605
                    6          7          8          9         10
     6  C    0.000000
     7  H    2.156531   0.000000
     8  H    3.478012   2.518390   0.000000
     9  H    1.084375   2.518196   4.387347   0.000000
    10  F    4.139767   4.485839   2.591975   5.224020   0.000000
    11  F    3.582609   5.120581   4.460331   4.460703   2.678620
    12  F    2.337622   4.485274   5.223065   2.592130   4.687721
                   11         12
    11  F    0.000000
    12  F    2.678095   0.000000
 Symmetry turned off by external request.
 Stoichiometry    C6H3F3(1+,2)
 Framework group  CS[SG(C6H3F3)]
 Deg. of freedom    21
 Full point group                 CS      NOp   2
 Rotational constants (GHZ):           2.3929117           1.7280804           1.0034341
 Leave Link  202 at Wed Jan 29 15:52:57 2025, MaxMem=   104857600 cpu:               0.0 elap:               0.0
 (Enter /sw/cluster/pub/apps//g16/l301.exe)
 Standard basis: 6-311++G(d,p) (5D, 7F)
 Ernie: Thresh=  0.10000D-02 Tol=  0.10000D-05 Strict=F.
   219 basis functions,   351 primitive gaussians,   228 cartesian basis functions
    33 alpha electrons       32 beta electrons
       nuclear repulsion energy       434.4327466290 Hartrees.
 IExCor= 1009 DFT=T Ex+Corr=PBE1PBE ExCW=0 ScaHFX=  0.250000
 ScaDFX=  0.750000  0.750000  1.000000  1.000000 ScalE2=  1.000000  1.000000
 IRadAn=      5 IRanWt=     -1 IRanGd=            0 ICorTp=0 IEmpDi=  4
 NAtoms=   12 NActive=   12 NUniq=   12 SFac= 1.00D+00 NAtFMM=   60 NAOKFM=F Big=F
 Integral buffers will be    131072 words long.
 Raffenetti 2 integral format.
 Two-electron integral symmetry is turned off.
 Leave Link  301 at Wed Jan 29 15:52:57 2025, MaxMem=   104857600 cpu:               0.0 elap:               0.0
 (Enter /sw/cluster/pub/apps//g16/l302.exe)
 NPDir=0 NMtPBC=     1 NCelOv=     1 NCel=       1 NClECP=     1 NCelD=      1
         NCelK=      1 NCelE2=     1 NClLst=     1 CellRange=     0.0.
 One-electron integrals computed using PRISM.
 NBasis=   219 RedAO= T EigKep=  2.06D-06  NBF=   219
 NBsUse=   219 1.00D-06 EigRej= -1.00D+00 NBFU=   219
 Precomputing XC quadrature grid using
 IXCGrd= 4 IRadAn=           5 IRanWt=          -1 IRanGd=           0 AccXCQ= 0.00D+00.
 Generated NRdTot=       0 NPtTot=           0 NUsed=           0 NTot=          32
 NSgBfM=   228   228   228   228   228 MxSgAt=    12 MxSgA2=    12.
 Leave Link  302 at Wed Jan 29 15:52:57 2025, MaxMem=   104857600 cpu:               0.1 elap:               0.2
 (Enter /sw/cluster/pub/apps//g16/l303.exe)
 DipDrv:  MaxL=1.
 Leave Link  303 at Wed Jan 29 15:52:57 2025, MaxMem=   104857600 cpu:               0.0 elap:               0.0
 (Enter /sw/cluster/pub/apps//g16/l401.exe)
 Initial guess from the checkpoint file:  "1-2-3-TFB-CAT.chk"
 B after Tr=     0.006045    0.003394    0.000000
         Rot=    1.000000   -0.000000    0.000000    0.000000 Ang=   0.00 deg.
 Guess basis will be translated and rotated to current coordinates.
 JPrj=2 DoOrth=T DoCkMO=T.
 Initial guess <Sx>= 0.0000 <Sy>= 0.0000 <Sz>= 0.5000 <S**2>= 0.7643 S= 0.5071
 Generating alternative initial guess.
 ExpMin= 3.60D-02 ExpMax= 1.14D+04 ExpMxC= 1.72D+03 IAcc=3 IRadAn=         5 AccDes= 0.00D+00
 Harris functional with IExCor= 1009 and IRadAn=       5 diagonalized for initial guess.
 HarFok:  IExCor= 1009 AccDes= 0.00D+00 IRadAn=         5 IDoV= 1 UseB2=F ITyADJ=14
 ICtDFT=  3500011 ScaDFX=  1.000000  1.000000  1.000000  1.000000
 FoFCou: FMM=F IPFlag=           0 FMFlag=      100000 FMFlg1=           0
         NFxFlg=           0 DoJE=T BraDBF=F KetDBF=T FulRan=T
         wScrn=  0.000000 ICntrl=       500 IOpCl=  0 I1Cent=   200000004 NGrid=           0
         NMat0=    1 NMatS0=      1 NMatT0=    0 NMatD0=    1 NMtDS0=    0 NMtDT0=    0
 Symmetry not used in FoFCou.
 Harris En= -529.294038125630    
 Leave Link  401 at Wed Jan 29 15:52:59 2025, MaxMem=   104857600 cpu:               1.7 elap:               1.7
 (Enter /sw/cluster/pub/apps//g16/l502.exe)
 Two-electron integral symmetry not used.
 UHF open shell SCF:
 Using DIIS extrapolation, IDIIS=  1040.
 NGot=   104857600 LenX=   104750604 LenY=   104698179
 Requested convergence on RMS density matrix=1.00D-08 within 128 cycles.
 Requested convergence on MAX density matrix=1.00D-06.
 Requested convergence on             energy=1.00D-06.
 No special actions if energy rises.
 Fock matrices will be formed incrementally for  20 cycles.

 Cycle   1  Pass 1  IDiag  1:
 FoFJK:  IHMeth= 1 ICntrl=       0 DoSepK=F KAlg= 0 I1Cent=           0 FoldK=F
 IRaf= 950000000 NMat=       1 IRICut=       1 DoRegI=T DoRafI=F ISym2E= 0 IDoP0=0 IntGTp=1.
 FoFCou: FMM=F IPFlag=           0 FMFlag=      100000 FMFlg1=           0
         NFxFlg=           0 DoJE=F BraDBF=F KetDBF=F FulRan=T
         wScrn=  0.000000 ICntrl=         0 IOpCl=  1 I1Cent=           0 NGrid=           0
         NMat0=    1 NMatS0=      1 NMatT0=    0 NMatD0=    1 NMtDS0=    0 NMtDT0=    0
 Symmetry not used in FoFCou.
 E= -529.188172531010    
 DIIS: error= 4.13D-03 at cycle   1 NSaved=   1.
 NSaved= 1 IEnMin= 1 EnMin= -529.188172531010     IErMin= 1 ErrMin= 4.13D-03
 ErrMax= 4.13D-03  0.00D+00 EMaxC= 1.00D-01 BMatC= 2.42D-02 BMatP= 2.42D-02
 IDIUse=3 WtCom= 9.59D-01 WtEn= 4.13D-02
 Coeff-Com:  0.100D+01
 Coeff-En:   0.100D+01
 Coeff:      0.100D+01
 Gap=     0.469 Goal=   None    Shift=    0.000
 Gap=     0.468 Goal=   None    Shift=    0.000
 GapD=    0.468 DampG=2.000 DampE=1.000 DampFc=2.0000 IDamp=-1.
 RMSDP=8.63D-03 MaxDP=5.35D-01              OVMax= 4.96D-02

 Cycle   2  Pass 1  IDiag  1:
 RMSU=  4.69D-03    CP:  8.70D-01
 E= -529.196005883343     Delta-E=       -0.007833352332 Rises=F Damp=F
 DIIS: error= 2.36D-03 at cycle   2 NSaved=   2.
 NSaved= 2 IEnMin= 2 EnMin= -529.196005883343     IErMin= 2 ErrMin= 2.36D-03
 ErrMax= 2.36D-03  0.00D+00 EMaxC= 1.00D-01 BMatC= 3.90D-03 BMatP= 2.42D-02
 IDIUse=3 WtCom= 9.76D-01 WtEn= 2.36D-02
 Coeff-Com:  0.171D+00 0.829D+00
 Coeff-En:   0.000D+00 0.100D+01
 Coeff:      0.167D+00 0.833D+00
 Gap=     0.227 Goal=   None    Shift=    0.000
[...]
    R8        2.71491  -0.00008   0.00000  -0.00042  -0.00042   2.71449
    R9        2.41550   0.00006   0.00000   0.00017   0.00017   2.41566
   R10        2.57479   0.00002   0.00000   0.00002   0.00002   2.57481
   R11        2.45290  -0.00002   0.00000   0.00000   0.00000   2.45290
   R12        2.04870  -0.00000   0.00000  -0.00001  -0.00001   2.04868
    A1        2.15621   0.00001   0.00000   0.00017   0.00017   2.15638
    A2        2.06340  -0.00000   0.00000   0.00000   0.00000   2.06340
    A3        2.06357  -0.00001   0.00000  -0.00017  -0.00017   2.06341
    A4        2.06581  -0.00003   0.00000  -0.00026  -0.00026   2.06554
    A5        2.11827   0.00000   0.00000  -0.00000  -0.00000   2.11826
    A6        2.09911   0.00003   0.00000   0.00026   0.00026   2.09938
    A7        2.08658  -0.00001   0.00000  -0.00002  -0.00002   2.08656
    A8        2.15906   0.00001   0.00000   0.00009   0.00009   2.15915
    A9        2.03755  -0.00000   0.00000  -0.00007  -0.00007   2.03748
   A10        2.10543   0.00006   0.00000   0.00035   0.00035   2.10578
   A11        2.08902  -0.00004   0.00000  -0.00032  -0.00032   2.08870
   A12        2.08874  -0.00002   0.00000  -0.00003  -0.00003   2.08871
   A13        2.08678  -0.00002   0.00000  -0.00022  -0.00022   2.08656
   A14        2.03733   0.00001   0.00000   0.00014   0.00014   2.03748
   A15        2.15908   0.00001   0.00000   0.00007   0.00007   2.15915
   A16        2.06557  -0.00002   0.00000  -0.00002  -0.00002   2.06555
   A17        2.11846  -0.00000   0.00000  -0.00021  -0.00021   2.11825
   A18        2.09915   0.00003   0.00000   0.00023   0.00023   2.09938
    D1        0.00000  -0.00000   0.00000  -0.00000  -0.00000   0.00000
    D2        3.14159  -0.00000   0.00000  -0.00000   0.00000   3.14159
    D3        3.14159   0.00000   0.00000   0.00000   0.00000   3.14159
    D4       -0.00000   0.00000   0.00000   0.00000   0.00000   0.00000
    D5       -0.00000   0.00000   0.00000   0.00000   0.00000   0.00000
    D6        3.14159   0.00000   0.00000   0.00000   0.00000   3.14159
    D7       -3.14159  -0.00000   0.00000  -0.00000  -0.00000   3.14159
    D8        0.00000  -0.00000   0.00000  -0.00000  -0.00000   0.00000
    D9        0.00000  -0.00000   0.00000  -0.00000   0.00000   0.00000
   D10        3.14159   0.00000   0.00000   0.00000   0.00000   3.14159
   D11        3.14159  -0.00000   0.00000  -0.00000   0.00000   3.14159
   D12       -0.00000   0.00000   0.00000   0.00000   0.00000   0.00000
   D13       -0.00000   0.00000   0.00000   0.00000   0.00000   0.00000
   D14        3.14159   0.00000   0.00000   0.00000   0.00000   3.14159
   D15        3.14159  -0.00000   0.00000  -0.00000   0.00000   3.14159
   D16        0.00000  -0.00000   0.00000  -0.00000  -0.00000   0.00000
   D17        0.00000  -0.00000   0.00000  -0.00000  -0.00000   0.00000
   D18        3.14159   0.00000   0.00000   0.00000   0.00000   3.14159
   D19        3.14159  -0.00000   0.00000  -0.00000   0.00000   3.14159
   D20       -0.00000   0.00000   0.00000   0.00000   0.00000   0.00000
   D21        0.00000  -0.00000   0.00000  -0.00000   0.00000   0.00000
   D22        3.14159   0.00000   0.00000   0.00000   0.00000   3.14159
   D23       -3.14159  -0.00000   0.00000  -0.00000  -0.00000  -3.14159
   D24        0.00000  -0.00000   0.00000  -0.00000  -0.00000   0.00000
         Item               Value     Threshold  Converged?
 Maximum Force            0.000082     0.000450     YES
 RMS     Force            0.000023     0.000300     YES
 Maximum Displacement     0.000478     0.001800     YES
 RMS     Displacement     0.000160     0.001200     YES
 Predicted change in Energy=-6.846369D-08
 Optimization completed.
    -- Stationary point found.
                           ----------------------------
                           !   Optimized Parameters   !
                           ! (Angstroms and Degrees)  !
 --------------------------                            --------------------------
 ! Name  Definition              Value          Derivative Info.                !
 --------------------------------------------------------------------------------
 ! R1    R(1,2)                  1.4132         -DE/DX =    0.0                 !
 ! R2    R(1,6)                  1.413          -DE/DX =    0.0001              !
 ! R3    R(1,7)                  1.0859         -DE/DX =    0.0                 !
 ! R4    R(2,3)                  1.3625         -DE/DX =    0.0                 !
 ! R5    R(2,8)                  1.0841         -DE/DX =    0.0                 !
 ! R6    R(3,4)                  1.4364         -DE/DX =    0.0                 !
 ! R7    R(3,10)                 1.2981         -DE/DX =    0.0                 !
 ! R8    R(4,5)                  1.4367         -DE/DX =   -0.0001              !
 ! R9    R(4,11)                 1.2782         -DE/DX =    0.0001              !
 ! R10   R(5,6)                  1.3625         -DE/DX =    0.0                 !
 ! R11   R(5,12)                 1.298          -DE/DX =    0.0                 !
 ! R12   R(6,9)                  1.0841         -DE/DX =    0.0                 !
 ! A1    A(2,1,6)              123.5417         -DE/DX =    0.0                 !
 ! A2    A(2,1,7)              118.2242         -DE/DX =    0.0                 !
 ! A3    A(6,1,7)              118.2341         -DE/DX =    0.0                 !
 ! A4    A(1,2,3)              118.362          -DE/DX =    0.0                 !
 ! A5    A(1,2,8)              121.3677         -DE/DX =    0.0                 !
 ! A6    A(3,2,8)              120.2704         -DE/DX =    0.0                 !
 ! A7    A(2,3,4)              119.5523         -DE/DX =    0.0                 !
 ! A8    A(2,3,10)             123.7048         -DE/DX =    0.0                 !
 ! A9    A(4,3,10)             116.7428         -DE/DX =    0.0                 !
 ! A10   A(3,4,5)              120.6321         -DE/DX =    0.0001              !
 ! A11   A(3,4,11)             119.6921         -DE/DX =    0.0                 !
 ! A12   A(5,4,11)             119.6759         -DE/DX =    0.0                 !
 ! A13   A(4,5,6)              119.5635         -DE/DX =    0.0                 !
 ! A14   A(4,5,12)             116.7306         -DE/DX =    0.0                 !
 ! A15   A(6,5,12)             123.7059         -DE/DX =    0.0                 !
 ! A16   A(1,6,5)              118.3484         -DE/DX =    0.0                 !
 ! A17   A(1,6,9)              121.3789         -DE/DX =    0.0                 !
 ! A18   A(5,6,9)              120.2727         -DE/DX =    0.0                 !
 ! D1    D(6,1,2,3)              0.0            -DE/DX =    0.0                 !
 ! D2    D(6,1,2,8)            180.0            -DE/DX =    0.0                 !
 ! D3    D(7,1,2,3)            180.0            -DE/DX =    0.0                 !
 ! D4    D(7,1,2,8)              0.0            -DE/DX =    0.0                 !
 ! D5    D(2,1,6,5)              0.0            -DE/DX =    0.0                 !
 ! D6    D(2,1,6,9)            180.0            -DE/DX =    0.0                 !
 ! D7    D(7,1,6,5)            180.0            -DE/DX =    0.0                 !
 ! D8    D(7,1,6,9)              0.0            -DE/DX =    0.0                 !
 ! D9    D(1,2,3,4)              0.0            -DE/DX =    0.0                 !
 ! D10   D(1,2,3,10)           180.0            -DE/DX =    0.0                 !
 ! D11   D(8,2,3,4)            180.0            -DE/DX =    0.0                 !
 ! D12   D(8,2,3,10)             0.0            -DE/DX =    0.0                 !
 ! D13   D(2,3,4,5)              0.0            -DE/DX =    0.0                 !
 ! D14   D(2,3,4,11)           180.0            -DE/DX =    0.0                 !
 ! D15   D(10,3,4,5)           180.0            -DE/DX =    0.0                 !
 ! D16   D(10,3,4,11)            0.0            -DE/DX =    0.0                 !
 ! D17   D(3,4,5,6)              0.0            -DE/DX =    0.0                 !
 ! D18   D(3,4,5,12)           180.0            -DE/DX =    0.0                 !
 ! D19   D(11,4,5,6)           180.0            -DE/DX =    0.0                 !
 ! D20   D(11,4,5,12)            0.0            -DE/DX =    0.0                 !
 ! D21   D(4,5,6,1)              0.0            -DE/DX =    0.0                 !
 ! D22   D(4,5,6,9)            180.0            -DE/DX =    0.0                 !
 ! D23   D(12,5,6,1)          -180.0            -DE/DX =    0.0                 !
 ! D24   D(12,5,6,9)             0.0            -DE/DX =    0.0                 !
 --------------------------------------------------------------------------------
 GradGradGradGradGradGradGradGradGradGradGradGradGradGradGradGradGradGrad

 Leave Link  103 at Wed Jan 29 16:09:20 2025, MaxMem=   104857600 cpu:               0.0 elap:               0.0
 (Enter /sw/cluster/pub/apps//g16/l9999.exe)

 ----------------------------------------------------------------------

 Electric dipole moment (input orientation):
 (Debye = 10**-18 statcoulomb cm , SI units = C m)
                  (au)            (Debye)         (10**-30 SI)
   Tot        0.582497D+00      0.148056D+01      0.493861D+01
   x          0.504131D+00      0.128137D+01      0.427420D+01
   y          0.291811D+00      0.741710D+00      0.247408D+01
   z          0.000000D+00      0.000000D+00      0.000000D+00

 Dipole polarizability, Alpha (input orientation).
 (esu units = cm**3 , SI units = C**2 m**2 J**-1)
 Alpha(0;0):
               (au)            (10**-24 esu)      (10**-40 SI)
   iso        0.638190D+02      0.945699D+01      0.105223D+02
   aniso      0.481364D+02      0.713308D+01      0.793662D+01
   xx         0.816253D+02      0.120956D+02      0.134582D+02
   yx         0.330576D+01      0.489864D+00      0.545047D+00
   yy         0.777991D+02      0.115286D+02      0.128273D+02
   zx         0.000000D+00      0.000000D+00      0.000000D+00
   zy         0.000000D+00      0.000000D+00      0.000000D+00
   zz         0.320325D+02      0.474673D+01      0.528145D+01

 ----------------------------------------------------------------------

 Dipole orientation:
     6          0.00131341         -0.00226893          2.55416091
     6          1.17932993         -2.03740522          1.28824496
     6          1.18082259         -2.03998405         -1.28647193
     6         -0.00135289          0.00233717         -2.62803642
     6         -1.18217766          2.04232492         -1.28088596
     6         -1.17799566          2.03510021          1.29389463
     1          0.00259511         -0.00448317          4.60613054
     1          2.06512991         -3.56770937          2.32300613
     1         -2.06268681          3.56348883          2.33240618
     9          2.20393166         -3.80750282         -2.64533345
     9         -0.00290322          0.00501544         -5.04353300
     9         -2.20663358          3.81217052         -2.63545053

 Electric dipole moment (dipole orientation):
 (Debye = 10**-18 statcoulomb cm , SI units = C m)
                  (au)            (Debye)         (10**-30 SI)
   Tot        0.582497D+00      0.148056D+01      0.493861D+01
   x          0.000000D+00      0.000000D+00      0.000000D+00
   y          0.000000D+00      0.000000D+00      0.000000D+00
   z          0.582497D+00      0.148056D+01      0.493861D+01

 Dipole polarizability, Alpha (dipole orientation).
 (esu units = cm**3 , SI units = C**2 m**2 J**-1)
 Alpha(0;0):
               (au)            (10**-24 esu)      (10**-40 SI)
   iso        0.638190D+02      0.945699D+01      0.105223D+02
   aniso      0.481364D+02      0.713308D+01      0.793662D+01
   xx         0.430400D+02      0.637787D+01      0.709634D+01
   yx        -0.190165D+02     -0.281795D+01     -0.313539D+01
   yy         0.648853D+02      0.961501D+01      0.106981D+02
   zx         0.621584D-02      0.921093D-03      0.102485D-02
   zy        -0.107367D-01     -0.159101D-02     -0.177024D-02
   zz         0.835316D+02      0.123781D+02      0.137725D+02

 ----------------------------------------------------------------------
 1\1\GINC-N03\Freq\UPBE1PBE\6-311++G(d,p)\C6H3F3(1+,2)\UNKNOWN\29-Jan-2
 025\0\\#P Geom=AllCheck Guess=TCheck SCRF=Check GenChk UPBE1PBE/6-311+
 +G(d,p) Freq\\1 2 3-TFB SP\\1,2\C,1.1704633005,0.6759070066,-0.0000000
 109\C,1.2140718424,-0.7366348605,0.000000001\C,0.0356791171,-1.4205565
 803,0.0000000113\C,-1.2043181004,-0.6954552881,0.0000000021\C,-1.21220
 84735,0.7411891305,0.0000000068\C,-0.0307836682,1.4199399276,0.0000000
 023\H,2.1109135844,1.2187121324,0.0000000002\H,2.1567224571,-1.2721219
 162,-0.0000000005\H,-0.0233189918,2.50403761,0.0000000034\F,-0.0452535
 616,-2.7161212285,-0.0000000058\F,-2.3114005456,-1.3343857945,-0.00000
 00012\F,-2.3746979405,1.3186562171,-0.0000000077\\Version=ES64L-G16Rev
 A.03\HF=-529.1974122\S2=0.765598\S2-1=0.\S2A=0.750092\RMSD=1.782e-09\R
 MSF=4.615e-05\ZeroPoint=0.0754368\Thermal=0.0826298\Dipole=1.6064839,0
 .9282964,0.\DipoleDeriv=0.7041914,-0.2977437,0.,-0.2955735,1.0480554,0
 .,0.,0.,0.0715678,0.022635,-0.5598532,0.,-0.0919955,-0.9740664,0.,0.,0
 .,-0.0719299,0.0955848,0.1469631,0.,0.1728438,1.8309142,0.,0.,0.,0.202
 6162,1.3024996,0.8332442,0.,0.8306522,0.3393403,0.,0.,0.,0.3145459,1.5
 381145,-0.6593525,0.,-0.680098,0.3908839,0.,0.,0.,0.2030623,-1.0088014
 ,0.5057329,0.,0.0338727,0.0549186,0.,0.,0.,-0.0723142,0.1481437,0.0158
 678,0.,0.0158991,0.1297439,0.,0.,0.,0.1377295,0.1776992,-0.0083967,0.,
 -0.0132987,0.1065403,0.,0.,0.,0.1821118,0.1149425,0.0229623,0.,0.02774
 82,0.1692782,0.,0.,0.,0.1821572,-0.1040453,-0.0551153,0.,-0.0252257,-1
 .3594245,0.,0.,0.,-0.0631364,-0.9107508,-0.483444,0.,-0.4828554,-0.352
 9341,0.,0.,0.,-0.0233551,-1.0802134,0.5391351,0.,0.5080308,-0.3832496,
 0.,0.,0.,-0.063055\Polar=81.6252507,3.3057649,77.7991177,0.,0.,32.0325
 145\Quadrupole=2.9540341,1.8262659,-4.7802999,0.9706254,0.,0.\PG=C01 [
 X(C6H3F3)]\NImag=0\\0.65692515,0.08816649,0.55467167,0.,0.,0.13816611,
 -0.14400221,0.07282940,0.,0.77506780,-0.04439016,-0.25593874,0.,-0.031
 77988,0.64805153,0.,0.,-0.04897190,0.,0.,0.10613769,0.01198258,-0.0099
 8279,0.,-0.37723747,-0.12137212,0.,0.70328773,-0.00596246,-0.08819304,
 0.,-0.11897621,-0.13592788,0.,0.09157915,0.75093510,0.,0.,-0.00998556,
 0.,0.,-0.05007512,0.,0.,0.12580623,0.01793363,-0.05290900,0.,-0.017453
 07,0.03792044,0.,-0.19779759,0.08642311,0.,0.72084403,-0.05271705,0.07
 862515,0.,-0.02758115,-0.01151759,0.,0.01070184,-0.10553468,0.,0.11409
 752,0.58907182,0.,0.,0.00379438,0.,0.,-0.00464672,0.,0.,-0.05437511,0.
 ,0.,0.12423445,-0.07033814,0.04182187,0.,-0.01970870,-0.03765338,0.,0.
 03598328,0.03665478,0.,-0.08627976,0.02176156,0.,0.81820522,0.03702811
 ,-0.00547394,0.,-0.00526833,-0.01245521,0.,0.07786354,-0.02975973,0.,-
 0.05336520,-0.21713744,0.,0.02520833,0.63620831,0.,0.,-0.00998373,0.,0
 .,0.00786596,0.,0.,-0.00057574,0.,0.,-0.05440275,0.,0.,0.12587746,-0.2
 1556493,-0.00335224,0.,0.05048971,0.08738217,0.,-0.03217455,-0.0302919
 0,0.,-0.00899147,0.03323397,0.,-0.29973469,-0.16562497,0.,0.65154633,0
 .11443981,-0.18451772,0.,0.03060667,-0.01761485,0.,0.00232545,0.000684
 33,0.,-0.03273248,-0.02035487,0.,-0.16334371,-0.21291628,0.,0.03880803
 ,0.77101404,0.,0.,-0.04895483,0.,0.,-0.00187268,0.,0.,0.00788352,0.,0.
 ,-0.00462622,0.,0.,-0.05009689,0.,0.,0.10607841,-0.27884684,-0.1259397
 0,0.,0.00642858,0.00322096,0.,0.00079479,0.00126434,0.,-0.00022550,-0.
 00049409,0.,-0.00277301,0.00380913,0.,-0.01545141,-0.01291160,0.,0.288
 18718,-0.12594599,-0.13332277,0.,-0.02555939,-0.00987442,0.,0.00175561
 ,-0.00569450,0.,-0.00048965,0.00033414,0.,0.00332453,-0.00212507,0.,0.
 01586089,0.01202781,0.,0.13142931,0.13633809,0.,0.,-0.04344494,0.,0.,0
 .00919018,0.,0.,0.00604204,0.,0.,-0.00215495,0.,0.,0.00606146,0.,0.,0.
 00920296,0.,0.,0.02218802,0.00761210,-0.00417978,0.,-0.28398573,0.1261
 6865,0.,-0.01691120,0.01354580,0.,-0.00310088,-0.00160768,0.,-0.000609
 07,-0.00135517,0.,0.00089438,-0.00180593,0.,0.00063881,-0.00000933,0.,
 0.29348977,0.02591521,-0.00860055,0.,0.12505367,-0.12710838,0.,-0.0175
 9573,0.01446430,0.,-0.00089418,-0.00464403,0.,-0.00090403,0.00043730,0
 .,-0.00040301,-0.00465023,0.,-0.00005209,0.00107500,0.,-0.13272657,0.1
 2859872,0.,0.,0.00065539,0.,0.,-0.03618227,0.,0.,0.00726666,0.,0.,0.00
 890289,0.,0.,-0.00178163,0.,0.,0.00500987,0.,0.,-0.00221588,0.,0.,0.02
 439800,0.00487130,0.02749136,0.,-0.00421951,0.00255209,0.,-0.00079079,
 -0.00079511,0.,-0.00534715,0.00040956,0.,0.00486651,-0.03017297,0.,-0.
 05754263,-0.00565031,0.,0.00093993,-0.00022633,0.,0.00030655,0.0011275
 2,0.,0.05486311,-0.00258451,-0.00586310,0.,0.00115625,0.00047934,0.,-0
 .00125386,0.00062570,0.,-0.00031180,-0.00238403,0.,0.00096400,-0.00733
 506,0.,-0.00453321,-0.35355763,0.,-0.00018336,0.00077401,0.,-0.0001419
 9,-0.00026216,0.,0.00500534,0.36721874,0.,0.,0.00065144,0.,0.,0.005023
 24,0.,0.,-0.00177957,0.,0.,0.00889476,0.,0.,0.00724427,0.,0.,-0.036155
 66,0.,0.,-0.00222650,0.,0.,0.00065079,0.,0.,0.02439424,-0.00948757,0.0
 0212446,0.,0.00888635,-0.04649713,0.,-0.07895507,-0.02030403,0.,0.0005
 9721,0.03888503,0.,-0.00901343,-0.00474457,0.,0.00522020,-0.00044011,0
 .,0.00045551,-0.00154876,0.,0.00232057,0.00193721,0.,0.00028561,0.0000
 3023,0.,0.07206183,-0.02179267,0.04402490,0.,-0.02405317,-0.07148690,0
 .,-0.03007924,-0.40701392,0.,0.01628472,-0.08512888,0.,-0.00771423,0.0
 1454516,0.,0.02416498,-0.00216339,0.,0.00051540,-0.00043415,0.,0.00150
 317,-0.00005828,0.,0.00039928,-0.00006019,0.,0.02610736,0.50280511,0.,
 0.,0.00958633,0.,0.,0.01060681,0.,0.,-0.04236535,0.,0.,0.00587362,0.,0
 .,0.00284458,0.,0.,-0.00125811,0.,0.,-0.00168137,0.,0.,-0.00521215,0.,
 0.,-0.00016378,0.,0.,0.02341282,-0.00326701,0.00404815,0.,-0.00416356,
 0.00309414,0.,-0.05165241,-0.03832270,0.,-0.38026906,-0.17633415,0.,-0
 .02371428,-0.00810067,0.,0.00345131,0.00233977,0.,0.00050734,0.0002493
 7,0.,-0.00086342,-0.00189974,0.,-0.00025625,0.00018134,0.,0.00703915,0
 .00406883,0.,0.43984033,0.00395955,-0.00778196,0.,0.00669610,0.0002122
 8,0.,0.00797693,0.00316284,0.,-0.17625204,-0.17666933,0.,-0.05443456,-
 0.02471556,0.,-0.00124136,-0.00731754,0.,0.00024843,0.00022165,0.,0.00
 053486,0.00073400,0.,-0.00225030,0.00012443,0.,0.00190447,0.01194693,0
 .,0.21240277,0.19442278,0.,0.,-0.00109610,0.,0.,0.00418007,0.,0.,0.009
 32491,0.,0.,-0.03737531,0.,0.,0.00931107,0.,0.,0.00416762,0.,0.,0.0007
 2689,0.,0.,-0.00133169,0.,0.,-0.00132364,0.,0.,-0.00244215,0.,0.,0.018
 29531,0.02218194,-0.04011821,0.,0.00989781,0.02135422,0.,0.00347071,-0
 .01481477,0.,-0.03991039,0.03964463,0.,-0.34688394,0.12472278,0.,-0.08
 214225,0.02836439,0.,-0.00065538,0.00115975,0.,0.00020813,0.00044174,0
 .,0.00202331,0.00167155,0.,0.00058965,0.01059557,0.,0.01334786,0.00045
 515,0.,0.41787255,-0.01611632,0.01237009,0.,-0.00312396,-0.00681918,0.
 ,-0.01191879,0.00225148,0.,0.06222854,-0.04466028,0.,0.13431485,-0.139
 27248,0.,0.00599664,0.01936633,0.,-0.00090673,0.00068021,0.,0.00007396
 ,0.00001430,0.,0.00210987,0.00023995,0.,0.00254585,-0.00697639,0.,-0.0
 0172711,0.00565949,0.,-0.17347681,0.15714648,0.,0.,0.00958342,0.,0.,-0
 .00125526,0.,0.,0.00283309,0.,0.,0.00588096,0.,0.,-0.04236406,0.,0.,0.
 01062200,0.,0.,-0.00168790,0.,0.,-0.00015996,0.,0.,-0.00520958,0.,0.,0
 .00079875,0.,0.,-0.00243698,0.,0.,0.02339551\\-0.00001633,0.00003074,0
 .,-0.00005110,0.00003340,0.,0.00008503,0.00004711,0.,-0.00014325,-0.00
 012928,0.,0.00007048,0.00009198,0.,0.00004458,-0.00006548,0.,-0.000005
 52,-0.00000676,0.,-0.00000154,-0.00001340,0.,-0.00001434,0.00000444,0.
 ,0.00000182,-0.00003488,0.,0.00004638,0.00003391,0.,-0.00001620,0.0000
 0823,0.\\\@


 THE HURRIEDER I GO, THE BEHINDER I GET.
 Job cpu time:       0 days  0 hours  9 minutes 21.5 seconds.
 Elapsed time:       0 days  0 hours  9 minutes 22.4 seconds.
 File lengths (MBytes):  RWF=    132 Int=      0 D2E=      0 Chk=      7 Scr=      1
 Normal termination of Gaussian 16 at Wed Jan 29 16:09:20 2025.
