1 2 3-TFB SP                                                            
SP        RPBE1PBE                                                    6-311++G(d,p)       
Number of atoms                            I               12
Info1-9                                    I   N=           9
          19          19           0           0           0         110
           1          18        -302
Full Title                                 C   N=           1
1 2 3-TFB SP
Route                                      C   N=           4
#p PBE1PBE/6-311++G(d,p) density=current nosymm 
Charge                                     I                0
Multiplicity                               I                1
Number of electrons                        I               66
Number of alpha electrons                  I               33
Number of beta electrons                   I               33
Number of basis functions                  I              219
Number of independent functions            I              219
Number of point charges in /Mol/           I                0
Number of translation vectors              I                0
Atomic numbers                             I   N=          12
           6           6           6           6           6           6
           1           1           1           9           9           9
Nuclear charges                            R   N=          12
  6.00000000E+00  6.00000000E+00  6.00000000E+00  6.00000000E+00  6.00000000E+00
  6.00000000E+00  1.00000000E+00  1.00000000E+00  1.00000000E+00  9.00000000E+00
  9.00000000E+00  9.00000000E+00
Current cartesian coordinates              R   N=          36
  2.25829755E+00  1.30389689E+00  0.00000000E+00  2.27817533E+00 -1.32180579E+00
  0.00000000E+00  2.54135660E-03 -2.60573089E+00  0.00000000E+00 -2.28152823E+00
 -1.31740082E+00  1.88972612E-09 -2.25495600E+00  1.30493641E+00  0.00000000E+00
 -5.55411673E-03  2.63409105E+00  0.00000000E+00  4.03185835E+00  2.32778150E+00
  0.00000000E+00  4.02276941E+00 -2.39298245E+00  0.00000000E+00 -6.11034665E-02
  4.68050762E+00  0.00000000E+00 -4.62641144E-02 -5.12441524E+00  0.00000000E+00
 -4.45487809E+00 -2.57123496E+00  0.00000000E+00 -4.46092472E+00  2.52142238E+00
  0.00000000E+00
Number of symbols in /Mol/                 I                0
Force Field                                I                0
Atom Types                                 C   N=          12
                                                            
                                                            
                        
Int Atom Types                             I   N=          12
           0           0           0           0           0           0
           0           0           0           0           0           0
MM charges                                 R   N=          12
  0.00000000E+00  0.00000000E+00  0.00000000E+00  0.00000000E+00  0.00000000E+00
  0.00000000E+00  0.00000000E+00  0.00000000E+00  0.00000000E+00  0.00000000E+00
  0.00000000E+00  0.00000000E+00
Integer atomic weights                     I   N=          12
          12          12          12          12          12          12
           1           1           1          19          19          19
Real atomic weights                        R   N=          12
  1.20000000E+01  1.20000000E+01  1.20000000E+01  1.20000000E+01  1.20000000E+01
  1.20000000E+01  1.00782504E+00  1.00782504E+00  1.00782504E+00  1.89984032E+01
  1.89984032E+01  1.89984032E+01
Atom fragment info                         I   N=          12
           0           0           0           0           0           0
           0           0           0           0           0           0
Atom residue num                           I   N=          12
           0           0           0           0           0           0
           0           0           0           0           0           0
Nuclear spins                              I   N=          12
           0           0           0           0           0           0
           1           1           1           1           1           1
Nuclear ZEff                               R   N=          12
 -3.60000000E+00 -3.60000000E+00 -3.60000000E+00 -3.60000000E+00 -3.60000000E+00
 -3.60000000E+00 -1.00000000E+00 -1.00000000E+00 -1.00000000E+00 -6.75000000E+00
 -6.75000000E+00 -6.75000000E+00
Nuclear ZNuc                               R   N=          12
  6.00000000E+00  6.00000000E+00  6.00000000E+00  6.00000000E+00  6.00000000E+00
  6.00000000E+00  1.00000000E+00  1.00000000E+00  1.00000000E+00  9.00000000E+00
  9.00000000E+00  9.00000000E+00
Nuclear QMom                               R   N=          12
  0.00000000E+00  0.00000000E+00  0.00000000E+00  0.00000000E+00  0.00000000E+00
  0.00000000E+00  0.00000000E+00  0.00000000E+00  0.00000000E+00  0.00000000E+00
  0.00000000E+00  0.00000000E+00
Nuclear GFac                               R   N=          12
  0.00000000E+00  0.00000000E+00  0.00000000E+00  0.00000000E+00  0.00000000E+00
  0.00000000E+00  2.79284600E+00  2.79284600E+00  2.79284600E+00  2.62886700E+00
  2.62886700E+00  2.62886700E+00
MicOpt                                     I   N=          12
          -1          -1          -1          -1          -1          -1
          -1          -1          -1          -1          -1          -1
Number of residues                         I                0
Number of secondary structures             I                0
Number of contracted shells                I               69
Number of primitive shells                 I              138
Pure/Cartesian d shells                    I                0
Pure/Cartesian f shells                    I                0
Highest angular momentum                   I                2
Largest degree of contraction              I                6
Shell types                                I   N=          69
           0          -1          -1          -1          -1          -2
           0          -1          -1          -1          -1          -2
           0          -1          -1          -1          -1          -2
           0          -1          -1          -1          -1          -2
           0          -1          -1          -1          -1          -2
           0          -1          -1          -1          -1          -2
           0           0           0           0           1           0
           0           0           0           1           0           0
           0           0           1           0          -1          -1
          -1          -1          -2           0          -1          -1
          -1          -1          -2           0          -1          -1
          -1          -1          -2
Number of primitives per shell             I   N=          69
           6           3           1           1           1           1
           6           3           1           1           1           1
           6           3           1           1           1           1
           6           3           1           1           1           1
           6           3           1           1           1           1
           6           3           1           1           1           1
           3           1           1           1           1           3
           1           1           1           1           3           1
           1           1           1           6           3           1
           1           1           1           6           3           1
           1           1           1           6           3           1
           1           1           1
Shell to atom map                          I   N=          69
           1           1           1           1           1           1
           2           2           2           2           2           2
           3           3           3           3           3           3
           4           4           4           4           4           4
           5           5           5           5           5           5
           6           6           6           6           6           6
           7           7           7           7           7           8
           8           8           8           8           9           9
           9           9           9          10          10          10
          10          10          10          11          11          11
          11          11          11          12          12          12
          12          12          12
Primitive exponents                        R   N=         138
  4.56324000E+03  6.82024000E+02  1.54973000E+02  4.44553000E+01  1.30290000E+01
  1.82773000E+00  2.09642000E+01  4.80331000E+00  1.45933000E+00  4.83456000E-01
  1.45585000E-01  4.38000000E-02  6.26000000E-01  4.56324000E+03  6.82024000E+02
  1.54973000E+02  4.44553000E+01  1.30290000E+01  1.82773000E+00  2.09642000E+01
  4.80331000E+00  1.45933000E+00  4.83456000E-01  1.45585000E-01  4.38000000E-02
  6.26000000E-01  4.56324000E+03  6.82024000E+02  1.54973000E+02  4.44553000E+01
  1.30290000E+01  1.82773000E+00  2.09642000E+01  4.80331000E+00  1.45933000E+00
  4.83456000E-01  1.45585000E-01  4.38000000E-02  6.26000000E-01  4.56324000E+03
  6.82024000E+02  1.54973000E+02  4.44553000E+01  1.30290000E+01  1.82773000E+00
  2.09642000E+01  4.80331000E+00  1.45933000E+00  4.83456000E-01  1.45585000E-01
  4.38000000E-02  6.26000000E-01  4.56324000E+03  6.82024000E+02  1.54973000E+02
  4.44553000E+01  1.30290000E+01  1.82773000E+00  2.09642000E+01  4.80331000E+00
  1.45933000E+00  4.83456000E-01  1.45585000E-01  4.38000000E-02  6.26000000E-01
  4.56324000E+03  6.82024000E+02  1.54973000E+02  4.44553000E+01  1.30290000E+01
  1.82773000E+00  2.09642000E+01  4.80331000E+00  1.45933000E+00  4.83456000E-01
  1.45585000E-01  4.38000000E-02  6.26000000E-01  3.38650000E+01  5.09479000E+00
  1.15879000E+00  3.25840000E-01  1.02741000E-01  3.60000000E-02  7.50000000E-01
  3.38650000E+01  5.09479000E+00  1.15879000E+00  3.25840000E-01  1.02741000E-01
  3.60000000E-02  7.50000000E-01  3.38650000E+01  5.09479000E+00  1.15879000E+00
  3.25840000E-01  1.02741000E-01  3.60000000E-02  7.50000000E-01  1.14271000E+04
  1.72235000E+03  3.95746000E+02  1.15139000E+02  3.36026000E+01  4.91901000E+00
  5.54441000E+01  1.26323000E+01  3.71756000E+00  1.16545000E+00  3.21892000E-01
  1.07600000E-01  1.75000000E+00  1.14271000E+04  1.72235000E+03  3.95746000E+02
  1.15139000E+02  3.36026000E+01  4.91901000E+00  5.54441000E+01  1.26323000E+01
  3.71756000E+00  1.16545000E+00  3.21892000E-01  1.07600000E-01  1.75000000E+00
  1.14271000E+04  1.72235000E+03  3.95746000E+02  1.15139000E+02  3.36026000E+01
  4.91901000E+00  5.54441000E+01  1.26323000E+01  3.71756000E+00  1.16545000E+00
  3.21892000E-01  1.07600000E-01  1.75000000E+00
Contraction coefficients                   R   N=         138
  1.96665025E-03  1.52306019E-02  7.61269097E-02  2.60801033E-01  6.16462078E-01
  2.21006028E-01  1.14660081E-01  9.19999648E-01 -3.03068213E-03  1.00000000E+00
  1.00000000E+00  1.00000000E+00  1.00000000E+00  1.96665025E-03  1.52306019E-02
  7.61269097E-02  2.60801033E-01  6.16462078E-01  2.21006028E-01  1.14660081E-01
  9.19999648E-01 -3.03068213E-03  1.00000000E+00  1.00000000E+00  1.00000000E+00
  1.00000000E+00  1.96665025E-03  1.52306019E-02  7.61269097E-02  2.60801033E-01
  6.16462078E-01  2.21006028E-01  1.14660081E-01  9.19999648E-01 -3.03068213E-03
  1.00000000E+00  1.00000000E+00  1.00000000E+00  1.00000000E+00  1.96665025E-03
  1.52306019E-02  7.61269097E-02  2.60801033E-01  6.16462078E-01  2.21006028E-01
  1.14660081E-01  9.19999648E-01 -3.03068213E-03  1.00000000E+00  1.00000000E+00
  1.00000000E+00  1.00000000E+00  1.96665025E-03  1.52306019E-02  7.61269097E-02
  2.60801033E-01  6.16462078E-01  2.21006028E-01  1.14660081E-01  9.19999648E-01
 -3.03068213E-03  1.00000000E+00  1.00000000E+00  1.00000000E+00  1.00000000E+00
  1.96665025E-03  1.52306019E-02  7.61269097E-02  2.60801033E-01  6.16462078E-01
  2.21006028E-01  1.14660081E-01  9.19999648E-01 -3.03068213E-03  1.00000000E+00
  1.00000000E+00  1.00000000E+00  1.00000000E+00  2.54938145E-02  1.90373109E-01
  8.52161486E-01  1.00000000E+00  1.00000000E+00  1.00000000E+00  1.00000000E+00
  2.54938145E-02  1.90373109E-01  8.52161486E-01  1.00000000E+00  1.00000000E+00
  1.00000000E+00  1.00000000E+00  2.54938145E-02  1.90373109E-01  8.52161486E-01
  1.00000000E+00  1.00000000E+00  1.00000000E+00  1.00000000E+00  1.80093016E-03
  1.37419012E-02  6.81334059E-02  2.33325020E-01  5.89086051E-01  2.99505026E-01
  1.14536016E-01  9.20512125E-01 -3.37804046E-03  1.00000000E+00  1.00000000E+00
  1.00000000E+00  1.00000000E+00  1.80093016E-03  1.37419012E-02  6.81334059E-02
  2.33325020E-01  5.89086051E-01  2.99505026E-01  1.14536016E-01  9.20512125E-01
 -3.37804046E-03  1.00000000E+00  1.00000000E+00  1.00000000E+00  1.00000000E+00
  1.80093016E-03  1.37419012E-02  6.81334059E-02  2.33325020E-01  5.89086051E-01
  2.99505026E-01  1.14536016E-01  9.20512125E-01 -3.37804046E-03  1.00000000E+00
  1.00000000E+00  1.00000000E+00  1.00000000E+00
P(S=P) Contraction coefficients            R   N=         138
  0.00000000E+00  0.00000000E+00  0.00000000E+00  0.00000000E+00  0.00000000E+00
  0.00000000E+00  4.02486927E-02  2.37593957E-01  8.15853851E-01  1.00000000E+00
  1.00000000E+00  1.00000000E+00  0.00000000E+00  0.00000000E+00  0.00000000E+00
  0.00000000E+00  0.00000000E+00  0.00000000E+00  0.00000000E+00  4.02486927E-02
  2.37593957E-01  8.15853851E-01  1.00000000E+00  1.00000000E+00  1.00000000E+00
  0.00000000E+00  0.00000000E+00  0.00000000E+00  0.00000000E+00  0.00000000E+00
  0.00000000E+00  0.00000000E+00  4.02486927E-02  2.37593957E-01  8.15853851E-01
  1.00000000E+00  1.00000000E+00  1.00000000E+00  0.00000000E+00  0.00000000E+00
  0.00000000E+00  0.00000000E+00  0.00000000E+00  0.00000000E+00  0.00000000E+00
  4.02486927E-02  2.37593957E-01  8.15853851E-01  1.00000000E+00  1.00000000E+00
  1.00000000E+00  0.00000000E+00  0.00000000E+00  0.00000000E+00  0.00000000E+00
  0.00000000E+00  0.00000000E+00  0.00000000E+00  4.02486927E-02  2.37593957E-01
  8.15853851E-01  1.00000000E+00  1.00000000E+00  1.00000000E+00  0.00000000E+00
  0.00000000E+00  0.00000000E+00  0.00000000E+00  0.00000000E+00  0.00000000E+00
  0.00000000E+00  4.02486927E-02  2.37593957E-01  8.15853851E-01  1.00000000E+00
  1.00000000E+00  1.00000000E+00  0.00000000E+00  0.00000000E+00  0.00000000E+00
  0.00000000E+00  0.00000000E+00  0.00000000E+00  0.00000000E+00  0.00000000E+00
  0.00000000E+00  0.00000000E+00  0.00000000E+00  0.00000000E+00  0.00000000E+00
  0.00000000E+00  0.00000000E+00  0.00000000E+00  0.00000000E+00  0.00000000E+00
  0.00000000E+00  0.00000000E+00  0.00000000E+00  0.00000000E+00  0.00000000E+00
  0.00000000E+00  0.00000000E+00  0.00000000E+00  0.00000000E+00  0.00000000E+00
  3.54608874E-02  2.37450915E-01  8.20457708E-01  1.00000000E+00  1.00000000E+00
  1.00000000E+00  0.00000000E+00  0.00000000E+00  0.00000000E+00  0.00000000E+00
  0.00000000E+00  0.00000000E+00  0.00000000E+00  3.54608874E-02  2.37450915E-01
  8.20457708E-01  1.00000000E+00  1.00000000E+00  1.00000000E+00  0.00000000E+00
  0.00000000E+00  0.00000000E+00  0.00000000E+00  0.00000000E+00  0.00000000E+00
  0.00000000E+00  3.54608874E-02  2.37450915E-01  8.20457708E-01  1.00000000E+00
  1.00000000E+00  1.00000000E+00  0.00000000E+00
Coordinates of each shell                  R   N=         207
  2.25829755E+00  1.30389689E+00  0.00000000E+00  2.25829755E+00  1.30389689E+00
  0.00000000E+00  2.25829755E+00  1.30389689E+00  0.00000000E+00  2.25829755E+00
  1.30389689E+00  0.00000000E+00  2.25829755E+00  1.30389689E+00  0.00000000E+00
  2.25829755E+00  1.30389689E+00  0.00000000E+00  2.27817533E+00 -1.32180579E+00
  0.00000000E+00  2.27817533E+00 -1.32180579E+00  0.00000000E+00  2.27817533E+00
 -1.32180579E+00  0.00000000E+00  2.27817533E+00 -1.32180579E+00  0.00000000E+00
  2.27817533E+00 -1.32180579E+00  0.00000000E+00  2.27817533E+00 -1.32180579E+00
  0.00000000E+00  2.54135660E-03 -2.60573089E+00  0.00000000E+00  2.54135660E-03
 -2.60573089E+00  0.00000000E+00  2.54135660E-03 -2.60573089E+00  0.00000000E+00
  2.54135660E-03 -2.60573089E+00  0.00000000E+00  2.54135660E-03 -2.60573089E+00
  0.00000000E+00  2.54135660E-03 -2.60573089E+00  0.00000000E+00 -2.28152823E+00
 -1.31740082E+00  1.88972612E-09 -2.28152823E+00 -1.31740082E+00  1.88972612E-09
 -2.28152823E+00 -1.31740082E+00  1.88972612E-09 -2.28152823E+00 -1.31740082E+00
  1.88972612E-09 -2.28152823E+00 -1.31740082E+00  1.88972612E-09 -2.28152823E+00
 -1.31740082E+00  1.88972612E-09 -2.25495600E+00  1.30493641E+00  0.00000000E+00
 -2.25495600E+00  1.30493641E+00  0.00000000E+00 -2.25495600E+00  1.30493641E+00
  0.00000000E+00 -2.25495600E+00  1.30493641E+00  0.00000000E+00 -2.25495600E+00
  1.30493641E+00  0.00000000E+00 -2.25495600E+00  1.30493641E+00  0.00000000E+00
 -5.55411673E-03  2.63409105E+00  0.00000000E+00 -5.55411673E-03  2.63409105E+00
  0.00000000E+00 -5.55411673E-03  2.63409105E+00  0.00000000E+00 -5.55411673E-03
  2.63409105E+00  0.00000000E+00 -5.55411673E-03  2.63409105E+00  0.00000000E+00
 -5.55411673E-03  2.63409105E+00  0.00000000E+00  4.03185835E+00  2.32778150E+00
  0.00000000E+00  4.03185835E+00  2.32778150E+00  0.00000000E+00  4.03185835E+00
  2.32778150E+00  0.00000000E+00  4.03185835E+00  2.32778150E+00  0.00000000E+00
  4.03185835E+00  2.32778150E+00  0.00000000E+00  4.02276941E+00 -2.39298245E+00
  0.00000000E+00  4.02276941E+00 -2.39298245E+00  0.00000000E+00  4.02276941E+00
 -2.39298245E+00  0.00000000E+00  4.02276941E+00 -2.39298245E+00  0.00000000E+00
  4.02276941E+00 -2.39298245E+00  0.00000000E+00 -6.11034665E-02  4.68050762E+00
  0.00000000E+00 -6.11034665E-02  4.68050762E+00  0.00000000E+00 -6.11034665E-02
  4.68050762E+00  0.00000000E+00 -6.11034665E-02  4.68050762E+00  0.00000000E+00
 -6.11034665E-02  4.68050762E+00  0.00000000E+00 -4.62641144E-02 -5.12441524E+00
  0.00000000E+00 -4.62641144E-02 -5.12441524E+00  0.00000000E+00 -4.62641144E-02
 -5.12441524E+00  0.00000000E+00 -4.62641144E-02 -5.12441524E+00  0.00000000E+00
 -4.62641144E-02 -5.12441524E+00  0.00000000E+00 -4.62641144E-02 -5.12441524E+00
  0.00000000E+00 -4.45487809E+00 -2.57123496E+00  0.00000000E+00 -4.45487809E+00
 -2.57123496E+00  0.00000000E+00 -4.45487809E+00 -2.57123496E+00  0.00000000E+00
 -4.45487809E+00 -2.57123496E+00  0.00000000E+00 -4.45487809E+00 -2.57123496E+00
  0.00000000E+00 -4.45487809E+00 -2.57123496E+00  0.00000000E+00 -4.46092472E+00
  2.52142238E+00  0.00000000E+00 -4.46092472E+00  2.52142238E+00  0.00000000E+00
 -4.46092472E+00  2.52142238E+00  0.00000000E+00 -4.46092472E+00  2.52142238E+00
  0.00000000E+00 -4.46092472E+00  2.52142238E+00  0.00000000E+00 -4.46092472E+00
  2.52142238E+00  0.00000000E+00
Num ILSW                                   I              100
ILSW                                       I   N=         100
           0           0           0           0           2           0
           0           0           0           0        1009          -1
           5           0           0           0           0           0
           0           0           0           0           0           0
           1           1           0           0           0           0
           0           0      100000           0          -1           0
           0           0           0           0           0           0
           0           0           0           1           0           0
           0 -2000000000           1           0           0           0
           0           0           4          52           0           0
           0           0          13           0           0           0
           0           0           0          12           0           1
           0           0           0           0           0           0
           0           0           0           0           0           0
           0           0           0           0           0           0
           0           0           0           0           0           0
           0           0           0           0
Num RLSW                                   I               52
RLSW                                       R   N=          52
  7.50000000E-01  7.50000000E-01  1.00000000E+00  1.00000000E+00  2.50000000E-01
  0.00000000E+00  0.00000000E+00  1.00000000E+00  0.00000000E+00  0.00000000E+00
  0.00000000E+00  0.00000000E+00  1.00000000E+00  0.00000000E+00  0.00000000E+00
  0.00000000E+00  0.00000000E+00  1.00000000E+00  0.00000000E+00  0.00000000E+00
  0.00000000E+00  0.00000000E+00  1.00000000E+00  0.00000000E+00  0.00000000E+00
  0.00000000E+00  0.00000000E+00  1.00000000E+00  0.00000000E+00  0.00000000E+00
  0.00000000E+00  0.00000000E+00  1.00000000E+00  0.00000000E+00  0.00000000E+00
  0.00000000E+00  0.00000000E+00  0.00000000E+00  1.00000000E+00  1.00000000E+00
  0.00000000E+00  1.00000000E+00  0.00000000E+00  0.00000000E+00  0.00000000E+00
  0.00000000E+00  0.00000000E+00  0.00000000E+00  0.00000000E+00  0.00000000E+00
  0.00000000E+00  0.00000000E+00
MxBond                                     I                3
NBond                                      I   N=          12
           3           3           3           3           3           3
           1           1           1           1           1           1
IBond                                      I   N=          36
           2           6           7           1           3           8
           2           4          10           3           5          11
           4           6          12           1           5           9
           1           0           0           2           0           0
           6           0           0           3           0           0
           4           0           0           5           0           0
RBond                                      R   N=          36
  1.50000000E+00  1.50000000E+00  1.00000000E+00  1.50000000E+00  1.50000000E+00
  1.00000000E+00  1.50000000E+00  1.50000000E+00  1.00000000E+00  1.50000000E+00
  1.50000000E+00  1.00000000E+00  1.50000000E+00  1.50000000E+00  1.00000000E+00
  1.50000000E+00  1.50000000E+00  1.00000000E+00  1.00000000E+00  0.00000000E+00
  0.00000000E+00  1.00000000E+00  0.00000000E+00  0.00000000E+00  1.00000000E+00
  0.00000000E+00  0.00000000E+00  1.00000000E+00  0.00000000E+00  0.00000000E+00
  1.00000000E+00  0.00000000E+00  0.00000000E+00  1.00000000E+00  0.00000000E+00
  0.00000000E+00
Virial Ratio                               R      2.002906916866702E+00
SCF Energy                                 R     -5.295437702430645E+02
Total Energy                               R     -5.295437702430645E+02
RMS Density                                R      7.190378852309034E-09
Job Status                                 I                1
Nuclear derivative order                   I                0
External E-field                           R   N=          35
  0.00000000E+00  0.00000000E+00  0.00000000E+00  0.00000000E+00  0.00000000E+00
  0.00000000E+00  0.00000000E+00  0.00000000E+00  0.00000000E+00  0.00000000E+00
  0.00000000E+00  0.00000000E+00  0.00000000E+00  0.00000000E+00  0.00000000E+00
  0.00000000E+00  0.00000000E+00  0.00000000E+00  0.00000000E+00  0.00000000E+00
  0.00000000E+00  0.00000000E+00  0.00000000E+00  0.00000000E+00  0.00000000E+00
  0.00000000E+00  0.00000000E+00  0.00000000E+00  0.00000000E+00  0.00000000E+00
  0.00000000E+00  0.00000000E+00  0.00000000E+00  0.00000000E+00  0.00000000E+00
IOpCl                                      I                0
IROHF                                      I                0
Alpha Orbital Energies                     R   N=         219
 -2.48088993E+01 -2.48055937E+01 -2.48055736E+01 -1.03402357E+01 -1.03400959E+01
 -1.03388364E+01 -1.02612055E+01 -1.02569243E+01 -1.02568740E+01 -1.30335712E+00
 -1.29145854E+00 -1.28337840E+00 -9.25958129E-01 -8.08658643E-01 -8.07905468E-01
 -6.86121871E-01 -6.79452893E-01 -6.14783893E-01 -5.85362924E-01 -5.85070186E-01
 -5.38704708E-01 -5.36494112E-01 -5.12635369E-01 -5.07263356E-01 -4.91019111E-01
 -4.80710483E-01 -4.69396143E-01 -4.32701240E-01 -4.06596023E-01 -4.02517715E-01
 -3.92715653E-01 -2.85346871E-01 -2.83272489E-01 -2.71861665E-02 -2.61068934E-02
 -2.44364654E-03  5.95395453E-04  1.83808951E-02  4.11766640E-02  5.62200787E-02
  5.88886930E-02  7.83775943E-02  8.65968993E-02  9.30352832E-02  9.54091650E-02
  1.05827824E-01  1.06156767E-01  1.18592677E-01  1.24775522E-01  1.26448371E-01
  1.34168841E-01  1.37698449E-01  1.38059049E-01  1.47702713E-01  1.53850260E-01
  1.55230304E-01  1.58390294E-01  1.87187014E-01  1.87567238E-01  2.01814468E-01
  2.08317635E-01  2.11037760E-01  2.19851823E-01  2.36238550E-01  2.53531907E-01
  2.66177763E-01  2.75403703E-01  2.78048206E-01  2.86153127E-01  2.97231943E-01
  3.25316726E-01  3.39518495E-01  3.41164754E-01  3.51260360E-01  3.52577913E-01
  3.61995026E-01  3.83609711E-01  4.00104940E-01  4.00996680E-01  4.07964050E-01
  4.08950026E-01  4.39266277E-01  4.43267517E-01  5.01868568E-01  5.05473302E-01
  5.11714699E-01  5.25952408E-01  5.34112813E-01  5.54837180E-01  5.65217051E-01
  5.70524838E-01  5.78728712E-01  5.83739686E-01  6.07120394E-01  6.16915640E-01
  6.24557507E-01  6.88326513E-01  7.03275264E-01  7.11630007E-01  7.53774888E-01
  7.65381472E-01  7.93630825E-01  7.96009504E-01  8.34979513E-01  8.56892295E-01
  8.68674405E-01  8.70217216E-01  9.22154833E-01  9.27763891E-01  9.60459731E-01
  9.75907573E-01  9.82830367E-01  1.00821821E+00  1.02876335E+00  1.06090258E+00
  1.07694649E+00  1.11064267E+00  1.16761858E+00  1.18046826E+00  1.26951913E+00
  1.32278183E+00  1.39457071E+00  1.42077193E+00  1.42361457E+00  1.43799712E+00
  1.44267460E+00  1.45663941E+00  1.47258040E+00  1.50860986E+00  1.53488232E+00
  1.54709771E+00  1.54750789E+00  1.54973743E+00  1.57322886E+00  1.59810491E+00
  1.60180634E+00  1.64614946E+00  1.68350651E+00  1.71259971E+00  1.77895039E+00
  1.79474055E+00  1.83418306E+00  1.88011240E+00  1.88803090E+00  1.88920952E+00
  1.91566381E+00  1.95323351E+00  1.95713152E+00  1.98060462E+00  2.01770254E+00
  2.04187416E+00  2.08569232E+00  2.14982388E+00  2.16562511E+00  2.20434171E+00
  2.24845660E+00  2.29838226E+00  2.30965072E+00  2.38379025E+00  2.48149756E+00
  2.53095079E+00  2.60874144E+00  2.70195511E+00  2.71735413E+00  2.73584787E+00
  2.74314010E+00  2.75868722E+00  2.75958188E+00  2.76628306E+00  2.79892002E+00
  2.87164187E+00  2.87497792E+00  3.07918450E+00  3.13592716E+00  3.14638861E+00
  3.19920574E+00  3.22074665E+00  3.37012384E+00  3.37796486E+00  3.51667617E+00
  3.63964765E+00  3.71872927E+00  3.77191815E+00  3.78372778E+00  3.78476579E+00
  3.79327271E+00  3.84723905E+00  3.88065395E+00  3.95946255E+00  3.99396882E+00
  3.99785932E+00  4.01483580E+00  4.04196445E+00  4.06969361E+00  4.13827453E+00
  4.15416649E+00  4.23102048E+00  4.76525574E+00  4.86590088E+00  4.89491662E+00
  4.98791497E+00  6.31707925E+00  6.35566828E+00  6.39070562E+00  6.41588922E+00
  6.48110922E+00  6.54883188E+00  6.66332765E+00  6.83104821E+00  6.90875568E+00
  2.35584080E+01  2.39683750E+01  2.40056997E+01  2.41234968E+01  2.41697113E+01
  2.42744795E+01  6.69058446E+01  6.69403809E+01  6.69782870E+01
Alpha MO coefficients                      R   N=       47961
 -3.49889975E-06  1.42241624E-05  8.16519433E-06  4.71271009E-06  1.67000803E-13
 -1.95944494E-04 -3.75042275E-05 -2.16341810E-05 -6.51739194E-13  6.13963040E-03
 -3.06384808E-03 -1.76861788E-03  1.96700632E-12  6.44240958E-03 -1.27806228E-03
 -7.35183530E-04 -2.43304105E-12 -2.87207268E-05 -2.12480613E-13 -1.23000223E-13
 -6.59257758E-07 -1.14387756E-06  1.81711616E-06 -7.66495955E-06 -7.13783612E-05
  7.44479758E-07  1.12421940E-13  2.22717349E-04  3.71957077E-04  1.70261358E-05
 -4.27720691E-13 -8.97895303E-03  4.14492394E-03 -1.63793880E-03 -9.90918363E-13
  9.80711169E-05 -3.79022097E-04 -1.88072673E-03  2.25983208E-12  3.96308952E-05
 -1.03388889E-13  3.35307136E-13 -5.67419454E-05 -4.54795436E-05 -5.93359836E-06
  2.67078811E-05 -3.12380103E-05 -2.64070826E-05  1.79231792E-13 -2.86741386E-04
  1.30275669E-04  8.87910626E-05 -7.52201706E-13  9.60766506E-03  1.04280030E-03
  8.71214527E-03  7.34894073E-12  5.40219672E-03 -4.43876636E-03  9.79446189E-04
 -3.37405561E-12 -4.04445576E-05  2.35399666E-14  8.42600051E-13 -8.05081797E-05
  1.01775210E-05  2.46478139E-05 -1.04621962E-04 -1.32511781E-04 -7.65119212E-05
 -1.74555407E-14  7.80010292E-04 -6.91854872E-05 -3.95469780E-05 -4.08544256E-13
 -6.56535365E-03 -1.14651438E-02 -6.61099736E-03  3.22361659E-13 -2.02166527E-02
 -7.56016867E-04 -4.44639095E-04  1.37649581E-11 -1.10875957E-04  1.42412548E-12
  8.21924255E-13  3.36487046E-06  6.17875984E-06 -5.93854593E-06  2.67269737E-05
 -3.85009712E-05 -1.39305413E-05  1.80257318E-13 -2.86630276E-04  1.42239371E-04
  6.91181710E-05 -7.52922286E-13  9.59883665E-03  8.06523322E-03 -3.44626050E-03
  7.34066882E-12  5.41294227E-03 -1.37593583E-03 -4.34204643E-03 -3.35715655E-12
 -4.03983043E-05  7.41765749E-13 -3.99395496E-13  4.92589826E-05 -6.46090897E-05
  1.81272736E-06 -7.64567038E-06 -3.50498926E-05 -6.22220989E-05  1.12000515E-13
  2.22643564E-04  2.00766900E-04  3.13853461E-04 -4.27370385E-13 -8.97908421E-03
  6.53633603E-04  4.40848804E-03 -9.89525352E-13  1.02118016E-04 -1.82340825E-03
  6.12347904E-04  2.25097587E-12  3.96730288E-05  2.38987833E-13 -2.57678131E-13
 -1.10406595E-05 -7.19054904E-05 -3.66645568E-05  3.36106936E-04  9.87436369E-04
  3.41189119E-04  8.25733755E-07  4.83356683E-07 -9.72658857E-14  2.52476214E-05
 -4.37006850E-04 -8.03933309E-04  4.83680650E-04  1.75295847E-05 -4.26362842E-05
  1.04295147E-13  2.52593216E-05 -4.37157478E-04 -8.04052628E-04  4.83125118E-04
 -2.81261207E-05  3.65762918E-05  1.04645991E-13 -5.32364738E-04 -4.41357316E-04