benzene SP                                                              
SP        RPBE1PBE                                                    6-311++G(d,p)       
Number of atoms                            I               12
Info1-9                                    I   N=           9
          19          19           0           0           0         110
           1          18        -302
Full Title                                 C   N=           1
benzene SP  
Route                                      C   N=           4
#p PBE1PBE/6-311++G(d,p) density=current        
Charge                                     I                0
Multiplicity                               I                1
Number of electrons                        I               42
Number of alpha electrons                  I               21
Number of beta electrons                   I               21
Number of basis functions                  I              174
Number of independent functions            I              174
Number of point charges in /Mol/           I                0
Number of translation vectors              I                0
Atomic numbers                             I   N=          12
           6           6           6           6           6           6
           1           1           1           1           1           1
Nuclear charges                            R   N=          12
  6.00000000E+00  6.00000000E+00  6.00000000E+00  6.00000000E+00  6.00000000E+00
  6.00000000E+00  1.00000000E+00  1.00000000E+00  1.00000000E+00  1.00000000E+00
  1.00000000E+00  1.00000000E+00
Current cartesian coordinates              R   N=          36
 -2.27580809E+00 -1.31400448E+00  0.00000000E+00 -2.27580809E+00  1.31400443E+00
  0.00000000E+00  2.44201502E-08  2.62805832E+00  0.00000000E+00  2.27580809E+00
  1.31400448E+00  0.00000000E+00  2.27580809E+00 -1.31400443E+00  0.00000000E+00
 -2.44201505E-08 -2.62805832E+00  0.00000000E+00 -4.05201554E+00 -2.33939995E+00
  0.00000000E+00 -4.05201552E+00  2.33940002E+00  0.00000000E+00  4.03932024E-07
  4.67898374E+00  0.00000000E+00  4.05201554E+00  2.33939995E+00  0.00000000E+00
  4.05201552E+00 -2.33940002E+00  0.00000000E+00 -4.03932025E-07 -4.67898374E+00
  0.00000000E+00
Number of symbols in /Mol/                 I                0
Force Field                                I                0
Atom Types                                 C   N=          12
                                                            
                                                            
                        
Int Atom Types                             I   N=          12
           0           0           0           0           0           0
           0           0           0           0           0           0
MM charges                                 R   N=          12
  0.00000000E+00  0.00000000E+00  0.00000000E+00  0.00000000E+00  0.00000000E+00
  0.00000000E+00  0.00000000E+00  0.00000000E+00  0.00000000E+00  0.00000000E+00
  0.00000000E+00  0.00000000E+00
Integer atomic weights                     I   N=          12
          12          12          12          12          12          12
           1           1           1           1           1           1
Real atomic weights                        R   N=          12
  1.20000000E+01  1.20000000E+01  1.20000000E+01  1.20000000E+01  1.20000000E+01
  1.20000000E+01  1.00782504E+00  1.00782504E+00  1.00782504E+00  1.00782504E+00
  1.00782504E+00  1.00782504E+00
Atom fragment info                         I   N=          12
           0           0           0           0           0           0
           0           0           0           0           0           0
Atom residue num                           I   N=          12
           0           0           0           0           0           0
           0           0           0           0           0           0
Nuclear spins                              I   N=          12
           0           0           0           0           0           0
           1           1           1           1           1           1
Nuclear ZEff                               R   N=          12
 -3.60000000E+00 -3.60000000E+00 -3.60000000E+00 -3.60000000E+00 -3.60000000E+00
 -3.60000000E+00 -1.00000000E+00 -1.00000000E+00 -1.00000000E+00 -1.00000000E+00
 -1.00000000E+00 -1.00000000E+00
Nuclear ZNuc                               R   N=          12
  6.00000000E+00  6.00000000E+00  6.00000000E+00  6.00000000E+00  6.00000000E+00
  6.00000000E+00  1.00000000E+00  1.00000000E+00  1.00000000E+00  1.00000000E+00
  1.00000000E+00  1.00000000E+00
Nuclear QMom                               R   N=          12
  0.00000000E+00  0.00000000E+00  0.00000000E+00  0.00000000E+00  0.00000000E+00
  0.00000000E+00  0.00000000E+00  0.00000000E+00  0.00000000E+00  0.00000000E+00
  0.00000000E+00  0.00000000E+00
Nuclear GFac                               R   N=          12
  0.00000000E+00  0.00000000E+00  0.00000000E+00  0.00000000E+00  0.00000000E+00
  0.00000000E+00  2.79284600E+00  2.79284600E+00  2.79284600E+00  2.79284600E+00
  2.79284600E+00  2.79284600E+00
MicOpt                                     I   N=          12
          -1          -1          -1          -1          -1          -1
          -1          -1          -1          -1          -1          -1
Number of residues                         I                0
Number of secondary structures             I                0
SymInf integers                            I   N=          26
           2           4           1           1           1          -1
          -1           1           1           1          -1          -1
          -1          -1           0           0           0           0
           0           0           0           0           0           0
           0           0
RotTr to input orientation                 R   N=          12
  6.81679716E-07 -1.00000000E+00  0.00000000E+00  1.00000000E+00  6.81679716E-07
  0.00000000E+00  0.00000000E+00  0.00000000E+00  1.00000000E+00 -1.93921895E-07
 -9.65560061E-08  0.00000000E+00
Number of contracted shells                I               66
Number of primitive shells                 I              120
Pure/Cartesian d shells                    I                0
Pure/Cartesian f shells                    I                0
Highest angular momentum                   I                2
Largest degree of contraction              I                6
Shell types                                I   N=          66
           0          -1          -1          -1          -1          -2
           0          -1          -1          -1          -1          -2
           0          -1          -1          -1          -1          -2
           0          -1          -1          -1          -1          -2
           0          -1          -1          -1          -1          -2
           0          -1          -1          -1          -1          -2
           0           0           0           0           1           0
           0           0           0           1           0           0
           0           0           1           0           0           0
           0           1           0           0           0           0
           1           0           0           0           0           1
Number of primitives per shell             I   N=          66
           6           3           1           1           1           1
           6           3           1           1           1           1
           6           3           1           1           1           1
           6           3           1           1           1           1
           6           3           1           1           1           1
           6           3           1           1           1           1
           3           1           1           1           1           3
           1           1           1           1           3           1
           1           1           1           3           1           1
           1           1           3           1           1           1
           1           3           1           1           1           1
Shell to atom map                          I   N=          66
           1           1           1           1           1           1
           2           2           2           2           2           2
           3           3           3           3           3           3
           4           4           4           4           4           4
           5           5           5           5           5           5
           6           6           6           6           6           6
           7           7           7           7           7           8
           8           8           8           8           9           9
           9           9           9          10          10          10
          10          10          11          11          11          11
          11          12          12          12          12          12
Primitive exponents                        R   N=         120
  4.56324000E+03  6.82024000E+02  1.54973000E+02  4.44553000E+01  1.30290000E+01
  1.82773000E+00  2.09642000E+01  4.80331000E+00  1.45933000E+00  4.83456000E-01
  1.45585000E-01  4.38000000E-02  6.26000000E-01  4.56324000E+03  6.82024000E+02
  1.54973000E+02  4.44553000E+01  1.30290000E+01  1.82773000E+00  2.09642000E+01
  4.80331000E+00  1.45933000E+00  4.83456000E-01  1.45585000E-01  4.38000000E-02
  6.26000000E-01  4.56324000E+03  6.82024000E+02  1.54973000E+02  4.44553000E+01
  1.30290000E+01  1.82773000E+00  2.09642000E+01  4.80331000E+00  1.45933000E+00
  4.83456000E-01  1.45585000E-01  4.38000000E-02  6.26000000E-01  4.56324000E+03
  6.82024000E+02  1.54973000E+02  4.44553000E+01  1.30290000E+01  1.82773000E+00
  2.09642000E+01  4.80331000E+00  1.45933000E+00  4.83456000E-01  1.45585000E-01
  4.38000000E-02  6.26000000E-01  4.56324000E+03  6.82024000E+02  1.54973000E+02
  4.44553000E+01  1.30290000E+01  1.82773000E+00  2.09642000E+01  4.80331000E+00
  1.45933000E+00  4.83456000E-01  1.45585000E-01  4.38000000E-02  6.26000000E-01
  4.56324000E+03  6.82024000E+02  1.54973000E+02  4.44553000E+01  1.30290000E+01
  1.82773000E+00  2.09642000E+01  4.80331000E+00  1.45933000E+00  4.83456000E-01
  1.45585000E-01  4.38000000E-02  6.26000000E-01  3.38650000E+01  5.09479000E+00
  1.15879000E+00  3.25840000E-01  1.02741000E-01  3.60000000E-02  7.50000000E-01
  3.38650000E+01  5.09479000E+00  1.15879000E+00  3.25840000E-01  1.02741000E-01
  3.60000000E-02  7.50000000E-01  3.38650000E+01  5.09479000E+00  1.15879000E+00
  3.25840000E-01  1.02741000E-01  3.60000000E-02  7.50000000E-01  3.38650000E+01
  5.09479000E+00  1.15879000E+00  3.25840000E-01  1.02741000E-01  3.60000000E-02
  7.50000000E-01  3.38650000E+01  5.09479000E+00  1.15879000E+00  3.25840000E-01
  1.02741000E-01  3.60000000E-02  7.50000000E-01  3.38650000E+01  5.09479000E+00
  1.15879000E+00  3.25840000E-01  1.02741000E-01  3.60000000E-02  7.50000000E-01
Contraction coefficients                   R   N=         120
  1.96665025E-03  1.52306019E-02  7.61269097E-02  2.60801033E-01  6.16462078E-01
  2.21006028E-01  1.14660081E-01  9.19999648E-01 -3.03068213E-03  1.00000000E+00
  1.00000000E+00  1.00000000E+00  1.00000000E+00  1.96665025E-03  1.52306019E-02
  7.61269097E-02  2.60801033E-01  6.16462078E-01  2.21006028E-01  1.14660081E-01
  9.19999648E-01 -3.03068213E-03  1.00000000E+00  1.00000000E+00  1.00000000E+00
  1.00000000E+00  1.96665025E-03  1.52306019E-02  7.61269097E-02  2.60801033E-01
  6.16462078E-01  2.21006028E-01  1.14660081E-01  9.19999648E-01 -3.03068213E-03
  1.00000000E+00  1.00000000E+00  1.00000000E+00  1.00000000E+00  1.96665025E-03
  1.52306019E-02  7.61269097E-02  2.60801033E-01  6.16462078E-01  2.21006028E-01
  1.14660081E-01  9.19999648E-01 -3.03068213E-03  1.00000000E+00  1.00000000E+00
  1.00000000E+00  1.00000000E+00  1.96665025E-03  1.52306019E-02  7.61269097E-02
  2.60801033E-01  6.16462078E-01  2.21006028E-01  1.14660081E-01  9.19999648E-01
 -3.03068213E-03  1.00000000E+00  1.00000000E+00  1.00000000E+00  1.00000000E+00
  1.96665025E-03  1.52306019E-02  7.61269097E-02  2.60801033E-01  6.16462078E-01
  2.21006028E-01  1.14660081E-01  9.19999648E-01 -3.03068213E-03  1.00000000E+00
  1.00000000E+00  1.00000000E+00  1.00000000E+00  2.54938145E-02  1.90373109E-01
  8.52161486E-01  1.00000000E+00  1.00000000E+00  1.00000000E+00  1.00000000E+00
  2.54938145E-02  1.90373109E-01  8.52161486E-01  1.00000000E+00  1.00000000E+00
  1.00000000E+00  1.00000000E+00  2.54938145E-02  1.90373109E-01  8.52161486E-01
  1.00000000E+00  1.00000000E+00  1.00000000E+00  1.00000000E+00  2.54938145E-02
  1.90373109E-01  8.52161486E-01  1.00000000E+00  1.00000000E+00  1.00000000E+00
  1.00000000E+00  2.54938145E-02  1.90373109E-01  8.52161486E-01  1.00000000E+00
  1.00000000E+00  1.00000000E+00  1.00000000E+00  2.54938145E-02  1.90373109E-01
  8.52161486E-01  1.00000000E+00  1.00000000E+00  1.00000000E+00  1.00000000E+00
P(S=P) Contraction coefficients            R   N=         120
  0.00000000E+00  0.00000000E+00  0.00000000E+00  0.00000000E+00  0.00000000E+00
  0.00000000E+00  4.02486927E-02  2.37593957E-01  8.15853851E-01  1.00000000E+00
  1.00000000E+00  1.00000000E+00  0.00000000E+00  0.00000000E+00  0.00000000E+00
  0.00000000E+00  0.00000000E+00  0.00000000E+00  0.00000000E+00  4.02486927E-02
  2.37593957E-01  8.15853851E-01  1.00000000E+00  1.00000000E+00  1.00000000E+00
  0.00000000E+00  0.00000000E+00  0.00000000E+00  0.00000000E+00  0.00000000E+00
  0.00000000E+00  0.00000000E+00  4.02486927E-02  2.37593957E-01  8.15853851E-01
  1.00000000E+00  1.00000000E+00  1.00000000E+00  0.00000000E+00  0.00000000E+00
  0.00000000E+00  0.00000000E+00  0.00000000E+00  0.00000000E+00  0.00000000E+00
  4.02486927E-02  2.37593957E-01  8.15853851E-01  1.00000000E+00  1.00000000E+00
  1.00000000E+00  0.00000000E+00  0.00000000E+00  0.00000000E+00  0.00000000E+00
  0.00000000E+00  0.00000000E+00  0.00000000E+00  4.02486927E-02  2.37593957E-01
  8.15853851E-01  1.00000000E+00  1.00000000E+00  1.00000000E+00  0.00000000E+00
  0.00000000E+00  0.00000000E+00  0.00000000E+00  0.00000000E+00  0.00000000E+00
  0.00000000E+00  4.02486927E-02  2.37593957E-01  8.15853851E-01  1.00000000E+00
  1.00000000E+00  1.00000000E+00  0.00000000E+00  0.00000000E+00  0.00000000E+00
  0.00000000E+00  0.00000000E+00  0.00000000E+00  0.00000000E+00  0.00000000E+00
  0.00000000E+00  0.00000000E+00  0.00000000E+00  0.00000000E+00  0.00000000E+00
  0.00000000E+00  0.00000000E+00  0.00000000E+00  0.00000000E+00  0.00000000E+00
  0.00000000E+00  0.00000000E+00  0.00000000E+00  0.00000000E+00  0.00000000E+00
  0.00000000E+00  0.00000000E+00  0.00000000E+00  0.00000000E+00  0.00000000E+00
  0.00000000E+00  0.00000000E+00  0.00000000E+00  0.00000000E+00  0.00000000E+00
  0.00000000E+00  0.00000000E+00  0.00000000E+00  0.00000000E+00  0.00000000E+00
  0.00000000E+00  0.00000000E+00  0.00000000E+00  0.00000000E+00  0.00000000E+00
Coordinates of each shell                  R   N=         198
 -2.27580809E+00 -1.31400448E+00  0.00000000E+00 -2.27580809E+00 -1.31400448E+00
  0.00000000E+00 -2.27580809E+00 -1.31400448E+00  0.00000000E+00 -2.27580809E+00
 -1.31400448E+00  0.00000000E+00 -2.27580809E+00 -1.31400448E+00  0.00000000E+00
 -2.27580809E+00 -1.31400448E+00  0.00000000E+00 -2.27580809E+00  1.31400443E+00
  0.00000000E+00 -2.27580809E+00  1.31400443E+00  0.00000000E+00 -2.27580809E+00
  1.31400443E+00  0.00000000E+00 -2.27580809E+00  1.31400443E+00  0.00000000E+00
 -2.27580809E+00  1.31400443E+00  0.00000000E+00 -2.27580809E+00  1.31400443E+00
  0.00000000E+00  2.44201502E-08  2.62805832E+00  0.00000000E+00  2.44201502E-08
  2.62805832E+00  0.00000000E+00  2.44201502E-08  2.62805832E+00  0.00000000E+00
  2.44201502E-08  2.62805832E+00  0.00000000E+00  2.44201502E-08  2.62805832E+00
  0.00000000E+00  2.44201502E-08  2.62805832E+00  0.00000000E+00  2.27580809E+00
  1.31400448E+00  0.00000000E+00  2.27580809E+00  1.31400448E+00  0.00000000E+00
  2.27580809E+00  1.31400448E+00  0.00000000E+00  2.27580809E+00  1.31400448E+00
  0.00000000E+00  2.27580809E+00  1.31400448E+00  0.00000000E+00  2.27580809E+00
  1.31400448E+00  0.00000000E+00  2.27580809E+00 -1.31400443E+00  0.00000000E+00
  2.27580809E+00 -1.31400443E+00  0.00000000E+00  2.27580809E+00 -1.31400443E+00
  0.00000000E+00  2.27580809E+00 -1.31400443E+00  0.00000000E+00  2.27580809E+00
 -1.31400443E+00  0.00000000E+00  2.27580809E+00 -1.31400443E+00  0.00000000E+00
 -2.44201505E-08 -2.62805832E+00  0.00000000E+00 -2.44201505E-08 -2.62805832E+00
  0.00000000E+00 -2.44201505E-08 -2.62805832E+00  0.00000000E+00 -2.44201505E-08
 -2.62805832E+00  0.00000000E+00 -2.44201505E-08 -2.62805832E+00  0.00000000E+00
 -2.44201505E-08 -2.62805832E+00  0.00000000E+00 -4.05201554E+00 -2.33939995E+00
  0.00000000E+00 -4.05201554E+00 -2.33939995E+00  0.00000000E+00 -4.05201554E+00
 -2.33939995E+00  0.00000000E+00 -4.05201554E+00 -2.33939995E+00  0.00000000E+00
 -4.05201554E+00 -2.33939995E+00  0.00000000E+00 -4.05201552E+00  2.33940002E+00
  0.00000000E+00 -4.05201552E+00  2.33940002E+00  0.00000000E+00 -4.05201552E+00
  2.33940002E+00  0.00000000E+00 -4.05201552E+00  2.33940002E+00  0.00000000E+00
 -4.05201552E+00  2.33940002E+00  0.00000000E+00  4.03932024E-07  4.67898374E+00
  0.00000000E+00  4.03932024E-07  4.67898374E+00  0.00000000E+00  4.03932024E-07
  4.67898374E+00  0.00000000E+00  4.03932024E-07  4.67898374E+00  0.00000000E+00
  4.03932024E-07  4.67898374E+00  0.00000000E+00  4.05201554E+00  2.33939995E+00
  0.00000000E+00  4.05201554E+00  2.33939995E+00  0.00000000E+00  4.05201554E+00
  2.33939995E+00  0.00000000E+00  4.05201554E+00  2.33939995E+00  0.00000000E+00
  4.05201554E+00  2.33939995E+00  0.00000000E+00  4.05201552E+00 -2.33940002E+00
  0.00000000E+00  4.05201552E+00 -2.33940002E+00  0.00000000E+00  4.05201552E+00
 -2.33940002E+00  0.00000000E+00  4.05201552E+00 -2.33940002E+00  0.00000000E+00
  4.05201552E+00 -2.33940002E+00  0.00000000E+00 -4.03932025E-07 -4.67898374E+00
  0.00000000E+00 -4.03932025E-07 -4.67898374E+00  0.00000000E+00 -4.03932025E-07
 -4.67898374E+00  0.00000000E+00 -4.03932025E-07 -4.67898374E+00  0.00000000E+00
 -4.03932025E-07 -4.67898374E+00  0.00000000E+00
Num ILSW                                   I              100
ILSW                                       I   N=         100
           0           0           0           0           2           0
           0           0           0           0        1009          -1
           5           0           0           0           0           0
           0           0           0           0           0           0
           1           0           0           0           0           0
           0           0      100000           0          -1           0
           0           0           0           0           0           0
           0           0           0           1           0           0
           0 -2000000000           1           0           0           0
           0           0           4          52           0           0
           0           0          13           0           0           0
           0           0           0          12           0           1
           0           0           0           0           0           0
           0           0           0           0           0           0
           0           0           0           0           0           0
           0           0           0           0           0           0
           0           0           0           0
Num RLSW                                   I               52
RLSW                                       R   N=          52
  7.50000000E-01  7.50000000E-01  1.00000000E+00  1.00000000E+00  2.50000000E-01
  0.00000000E+00  0.00000000E+00  1.00000000E+00  0.00000000E+00  0.00000000E+00
  0.00000000E+00  0.00000000E+00  1.00000000E+00  0.00000000E+00  0.00000000E+00
  0.00000000E+00  0.00000000E+00  1.00000000E+00  0.00000000E+00  0.00000000E+00
  0.00000000E+00  0.00000000E+00  1.00000000E+00  0.00000000E+00  0.00000000E+00
  0.00000000E+00  0.00000000E+00  1.00000000E+00  0.00000000E+00  0.00000000E+00
  0.00000000E+00  0.00000000E+00  1.00000000E+00  0.00000000E+00  0.00000000E+00
  0.00000000E+00  0.00000000E+00  0.00000000E+00  1.00000000E+00  1.00000000E+00
  0.00000000E+00  1.00000000E+00  0.00000000E+00  0.00000000E+00  0.00000000E+00
  0.00000000E+00  0.00000000E+00  0.00000000E+00  0.00000000E+00  0.00000000E+00
  0.00000000E+00  0.00000000E+00
MxBond                                     I                3
NBond                                      I   N=          12
           3           3           3           3           3           3
           1           1           1           1           1           1
IBond                                      I   N=          36
           2           6           7           1           3           8
           2           4           9           3           5          10
           4           6          11           1           5          12
           1           0           0           2           0           0
           3           0           0           4           0           0
           5           0           0           6           0           0
RBond                                      R   N=          36
  1.50000000E+00  1.50000000E+00  1.00000000E+00  1.50000000E+00  1.50000000E+00
  1.00000000E+00  1.50000000E+00  1.50000000E+00  1.00000000E+00  1.50000000E+00
  1.50000000E+00  1.00000000E+00  1.50000000E+00  1.50000000E+00  1.00000000E+00
  1.50000000E+00  1.50000000E+00  1.00000000E+00  1.00000000E+00  0.00000000E+00
  0.00000000E+00  1.00000000E+00  0.00000000E+00  0.00000000E+00  1.00000000E+00
  0.00000000E+00  0.00000000E+00  1.00000000E+00  0.00000000E+00  0.00000000E+00
  1.00000000E+00  0.00000000E+00  0.00000000E+00  1.00000000E+00  0.00000000E+00
  0.00000000E+00
Virial Ratio                               R      2.004306115485804E+00
SCF Energy                                 R     -2.320198161740082E+02
Total Energy                               R     -2.320198161740082E+02
RMS Density                                R      5.161358612075362E-09
Job Status                                 I                1
Nuclear derivative order                   I                0
External E-field                           R   N=          35
  0.00000000E+00  0.00000000E+00  0.00000000E+00  0.00000000E+00  0.00000000E+00
  0.00000000E+00  0.00000000E+00  0.00000000E+00  0.00000000E+00  0.00000000E+00
  0.00000000E+00  0.00000000E+00  0.00000000E+00  0.00000000E+00  0.00000000E+00
  0.00000000E+00  0.00000000E+00  0.00000000E+00  0.00000000E+00  0.00000000E+00
  0.00000000E+00  0.00000000E+00  0.00000000E+00  0.00000000E+00  0.00000000E+00
  0.00000000E+00  0.00000000E+00  0.00000000E+00  0.00000000E+00  0.00000000E+00
  0.00000000E+00  0.00000000E+00  0.00000000E+00  0.00000000E+00  0.00000000E+00
IOpCl                                      I                0
IROHF                                      I                0
Alpha Orbital Energies                     R   N=         174
 -1.02290125E+01 -1.02287349E+01 -1.02287342E+01 -1.02281140E+01 -1.02281130E+01
 -1.02278130E+01 -8.85941901E-01 -7.73372904E-01 -7.73353567E-01 -6.24922944E-01
 -6.24922701E-01 -5.44083568E-01 -4.76884395E-01 -4.65778636E-01 -4.37734017E-01
 -4.37706143E-01 -3.86507345E-01 -3.57810817E-01 -3.57803740E-01 -2.68809376E-01
 -2.68793847E-01 -9.50801724E-03 -9.50408988E-03  1.96037269E-03  1.89781703E-02
  1.89789501E-02  4.10876716E-02  4.10880457E-02  6.94421272E-02  7.17176452E-02
  8.12285761E-02  9.88424781E-02  9.88437862E-02  1.07945804E-01  1.22478902E-01
  1.28782065E-01  1.28784194E-01  1.30398581E-01  1.30399958E-01  1.36890855E-01
  1.48891114E-01  1.48892419E-01  1.56259518E-01  1.56261970E-01  1.63177500E-01
  1.65234955E-01  1.65235892E-01  2.07740959E-01  2.07741605E-01  2.11363733E-01
  2.30589569E-01  2.30592766E-01  2.43677391E-01  2.74930557E-01  2.88835256E-01
  2.90219803E-01  2.90229432E-01  3.05404248E-01  3.05422396E-01  3.32898494E-01
  3.67507664E-01  3.67513076E-01  3.73590312E-01  3.73593525E-01  4.61587472E-01
  4.80871013E-01  5.44703072E-01  5.57557236E-01  5.60486811E-01  5.60489886E-01
  5.66361330E-01  5.79482995E-01  5.79489018E-01  5.89059564E-01  5.89060032E-01
  6.17298811E-01  6.35440777E-01  6.35443514E-01  6.93021073E-01  7.41898785E-01
  7.41928256E-01  7.51984618E-01  7.51989338E-01  7.93060587E-01  8.27325605E-01
  8.54591061E-01  8.54591223E-01  8.94468819E-01  8.94469900E-01  8.95506637E-01
  8.97035886E-01  9.09689476E-01  9.09693764E-01  9.40514138E-01  1.01569303E+00
  1.03199583E+00  1.03200743E+00  1.08507627E+00  1.08510319E+00  1.14676329E+00
  1.14677898E+00  1.31076723E+00  1.33885070E+00  1.46872480E+00  1.52878923E+00
  1.52883950E+00  1.53795029E+00  1.57883422E+00  1.58204235E+00  1.58206088E+00
  1.65486229E+00  1.65487580E+00  1.67530311E+00  1.67533219E+00  1.72472283E+00
  1.78358865E+00  1.78360633E+00  1.83711122E+00  1.83712988E+00  1.86105584E+00
  1.94106385E+00  1.94108125E+00  1.96369116E+00  1.96372480E+00  1.97613937E+00
  2.01118315E+00  2.04327861E+00  2.04329975E+00  2.09152508E+00  2.09156306E+00
  2.33786827E+00  2.35866522E+00  2.41621661E+00  2.44167190E+00  2.44168743E+00
  2.48450071E+00  2.48452575E+00  2.64476147E+00  2.64477616E+00  2.68954509E+00
  2.69420166E+00  2.70510595E+00  2.73893917E+00  2.73895028E+00  2.76759507E+00
  2.76759935E+00  2.80600750E+00  2.82721614E+00  2.82722475E+00  2.92389852E+00
  2.92391243E+00  2.93481223E+00  2.98278237E+00  2.98283198E+00  3.11355977E+00
  3.15479963E+00  3.38626813E+00  3.38631640E+00  3.52220997E+00  3.52225564E+00
  3.54033047E+00  3.71903347E+00  4.02415135E+00  4.02417659E+00  4.11452317E+00
  4.18277244E+00  4.18281734E+00  4.87831233E+00  2.36883794E+01  2.40831612E+01
  2.40832403E+01  2.42095013E+01  2.42095970E+01  2.43214189E+01
Alpha MO coefficients                      R   N=       30276
  2.29995336E-01  1.89346323E-01  2.24835703E-04  1.30159886E-04  0.00000000E+00
  6.71854839E-03 -1.25123129E-03 -7.23603173E-04  0.00000000E+00 -3.22496392E-03
  2.18210308E-04  1.26266109E-04  0.00000000E+00 -1.70451103E-03  1.41744790E-03
  8.17296240E-04  0.00000000E+00 -2.82340561E-04  0.00000000E+00  0.00000000E+00
  3.94312642E-04  6.81737933E-04  2.29997305E-01  1.89347942E-01  2.24835261E-04
 -1.30157454E-04  0.00000000E+00  6.71861050E-03 -1.25122896E-03  7.23594384E-04
  0.00000000E+00 -3.22500400E-03  2.18195469E-04 -1.26256192E-04  0.00000000E+00
 -1.70433130E-03  1.41750259E-03 -8.17341756E-04  0.00000000E+00 -2.82348678E-04
  0.00000000E+00  0.00000000E+00  3.94308100E-04 -6.81737105E-04  2.29687490E-01
  1.89093227E-01 -1.84713724E-09 -2.60088201E-04  0.00000000E+00  6.70900841E-03
  6.45778130E-09  1.44662780E-03  0.00000000E+00 -3.22003141E-03 -2.27539791E-09
 -2.53444601E-04  0.00000000E+00 -1.73295474E-03  6.59196739E-10 -1.62498812E-03
  0.00000000E+00 -2.81007766E-04  0.00000000E+00  0.00000000E+00 -7.88025874E-04
 -2.87996955E-09  2.29995336E-01  1.89346323E-01 -2.24835703E-04 -1.30159886E-04
  0.00000000E+00  6.71854839E-03  1.25123129E-03  7.23603173E-04  0.00000000E+00
 -3.22496392E-03 -2.18210308E-04 -1.26266109E-04  0.00000000E+00 -1.70451103E-03
 -1.41744790E-03 -8.17296240E-04  0.00000000E+00 -2.82340561E-04  0.00000000E+00
  0.00000000E+00  3.94312642E-04  6.81737933E-04  2.29997305E-01  1.89347942E-01
 -2.24835261E-04  1.30157454E-04  0.00000000E+00  6.71861050E-03  1.25122896E-03
 -7.23594384E-04  0.00000000E+00 -3.22500400E-03 -2.18195469E-04  1.26256192E-04
  0.00000000E+00 -1.70433130E-03 -1.41750259E-03  8.17341756E-04  0.00000000E+00
 -2.82348678E-04  0.00000000E+00  0.00000000E+00  3.94308100E-04 -6.81737105E-04
  2.29687490E-01  1.89093227E-01  1.84713724E-09  2.60088201E-04  0.00000000E+00
  6.70900841E-03 -6.45778130E-09 -1.44662780E-03  0.00000000E+00 -3.22003141E-03
  2.27539791E-09  2.53444601E-04  0.00000000E+00 -1.73295474E-03 -6.59196739E-10
  1.62498812E-03  0.00000000E+00 -2.81007766E-04  0.00000000E+00  0.00000000E+00
 -7.88025874E-04 -2.87996955E-09 -4.11538191E-05 -2.12912292E-03  2.99089254E-03
  1.05394030E-03 -1.05081713E-03 -6.06660193E-04  0.00000000E+00 -4.11518819E-05
 -2.12913589E-03  2.99090131E-03  1.05396788E-03 -1.05082182E-03  6.06662806E-04
  0.00000000E+00 -4.14226683E-05 -2.12752977E-03  2.98900873E-03  1.04945174E-03
  4.15068129E-10  1.21260931E-03  0.00000000E+00 -4.11538191E-05 -2.12912292E-03
  2.99089254E-03  1.05394030E-03  1.05081713E-03  6.06660193E-04  0.00000000E+00
 -4.11518819E-05 -2.12913589E-03  2.99090131E-03  1.05396788E-03  1.05082182E-03
 -6.06662806E-04  0.00000000E+00 -4.14226683E-05 -2.12752977E-03  2.98900873E-03
  1.04945174E-03 -4.15068129E-10 -1.21260931E-03  0.00000000E+00  2.81130371E-01
  2.31220883E-01 -1.18854849E-04  3.51637605E-04  0.00000000E+00  9.18322676E-03
  7.39075814E-04 -1.42604973E-03  0.00000000E+00 -5.02658738E-03 -8.94232553E-04
  1.54804368E-04  0.00000000E+00 -3.84437317E-03  4.70919896E-03  5.17309880E-03
  0.00000000E+00 -5.49907852E-04  0.00000000E+00  0.00000000E+00  8.00057430E-04
 -2.79559493E-04  2.82083777E-01  2.32005028E-01 -1.16809729E-04 -3.48582835E-04
  0.00000000E+00  9.21437157E-03  7.30783615E-04  1.41216707E-03  0.00000000E+00
 -5.04383175E-03 -8.93473460E-04 -1.48479919E-04  0.00000000E+00 -3.85780873E-03
  4.73934889E-03 -5.16575353E-03  0.00000000E+00 -5.51779276E-04  0.00000000E+00
  0.00000000E+00  7.93056521E-04  2.74904088E-04  9.49600766E-04  7.81017505E-04
 -7.24241358E-04 -2.47889959E-07  0.00000000E+00  3.10177034E-05  3.19281831E-03
  2.50783279E-07  0.00000000E+00 -1.68808849E-05 -1.15639344E-03  2.28352968E-06