 Entering Gaussian System, Link 0=g16
 Initial command:
 /sw/cluster/pub/apps//g16/l1.exe "/data/natrosa/27215/Gau-2179593.inp" -scrdir="/data/natrosa/27215/"
 Entering Link 1 = /sw/cluster/pub/apps//g16/l1.exe PID=   2179594.
  
 Copyright (c) 1988,1990,1992,1993,1995,1998,2003,2009,2016,
            Gaussian, Inc.  All Rights Reserved.
  
 This is part of the Gaussian(R) 16 program.  It is based on
 the Gaussian(R) 09 system (copyright 2009, Gaussian, Inc.),
 the Gaussian(R) 03 system (copyright 2003, Gaussian, Inc.),
 the Gaussian(R) 98 system (copyright 1998, Gaussian, Inc.),
 the Gaussian(R) 94 system (copyright 1995, Gaussian, Inc.),
 the Gaussian 92(TM) system (copyright 1992, Gaussian, Inc.),
 the Gaussian 90(TM) system (copyright 1990, Gaussian, Inc.),
 the Gaussian 88(TM) system (copyright 1988, Gaussian, Inc.),
 the Gaussian 86(TM) system (copyright 1986, Carnegie Mellon
 University), and the Gaussian 82(TM) system (copyright 1983,
 Carnegie Mellon University). Gaussian is a federally registered
 trademark of Gaussian, Inc.
  
 This software contains proprietary and confidential information,
 including trade secrets, belonging to Gaussian, Inc.
  
 This software is provided under written license and may be
 used, copied, transmitted, or stored only in accord with that
 written license.
  
 The following legend is applicable only to US Government
 contracts under FAR:
  
                    RESTRICTED RIGHTS LEGEND
  
 Use, reproduction and disclosure by the US Government is
 subject to restrictions as set forth in subparagraphs (a)
 and (c) of the Commercial Computer Software - Restricted
 Rights clause in FAR 52.227-19.
  
 Gaussian, Inc.
 340 Quinnipiac St., Bldg. 40, Wallingford CT 06492
  
  
 ---------------------------------------------------------------
 Warning -- This program may not be used in any manner that
 competes with the business of Gaussian, Inc. or will provide
 assistance to any competitor of Gaussian, Inc.  The licensee
 of this program is prohibited from giving any competitor of
 Gaussian, Inc. access to this program.  By using this program,
 the user acknowledges that Gaussian, Inc. is engaged in the
 business of creating and licensing software in the field of
 computational chemistry and represents and warrants to the
 licensee that it is not a competitor of Gaussian, Inc. and that
 it will not use this program in any manner prohibited above.
 ---------------------------------------------------------------
  

 Cite this work as:
 Gaussian 16, Revision A.03,
 M. J. Frisch, G. W. Trucks, H. B. Schlegel, G. E. Scuseria, 
 M. A. Robb, J. R. Cheeseman, G. Scalmani, V. Barone, 
 G. A. Petersson, H. Nakatsuji, X. Li, M. Caricato, A. V. Marenich, 
 J. Bloino, B. G. Janesko, R. Gomperts, B. Mennucci, H. P. Hratchian, 
 J. V. Ortiz, A. F. Izmaylov, J. L. Sonnenberg, D. Williams-Young, 
 F. Ding, F. Lipparini, F. Egidi, J. Goings, B. Peng, A. Petrone, 
 T. Henderson, D. Ranasinghe, V. G. Zakrzewski, J. Gao, N. Rega, 
 G. Zheng, W. Liang, M. Hada, M. Ehara, K. Toyota, R. Fukuda, 
 J. Hasegawa, M. Ishida, T. Nakajima, Y. Honda, O. Kitao, H. Nakai, 
 T. Vreven, K. Throssell, J. A. Montgomery, Jr., J. E. Peralta, 
 F. Ogliaro, M. J. Bearpark, J. J. Heyd, E. N. Brothers, K. N. Kudin, 
 V. N. Staroverov, T. A. Keith, R. Kobayashi, J. Normand, 
 K. Raghavachari, A. P. Rendell, J. C. Burant, S. S. Iyengar, 
 J. Tomasi, M. Cossi, J. M. Millam, M. Klene, C. Adamo, R. Cammi, 
 J. W. Ochterski, R. L. Martin, K. Morokuma, O. Farkas, 
 J. B. Foresman, and D. J. Fox, Gaussian, Inc., Wallingford CT, 2016.
 
 ******************************************
 Gaussian 16:  ES64L-G16RevA.03 25-Dec-2016
                 8-Jan-2025 
 ******************************************
 %chk=benzene.chk
 -------------------------------------
 #p PBE0/6-311++G(d,p) density=current
 -------------------------------------
 1/30=1,38=1,172=1/1;
 2/12=2,17=6,18=5,40=1/2;
 3/5=4,6=6,7=1111,11=9,25=1,30=1,71=1,74=-78/1,2,3;
 4//1;
 5/5=2,38=5/2;
 8/6=4,10=2/1;
 9/15=1,16=-3/6;
 10/5=1,13=10/2;
 6/7=2,8=2,9=2,10=2,22=-1/1;
 99/5=1,9=1/99;
 Leave Link    1 at Wed Jan  8 10:38:17 2025, MaxMem=           0 cpu:               0.0 elap:               0.0
 (Enter /sw/cluster/pub/apps//g16/l101.exe)
 ----------
 benzene SP
 ----------
 Symbolic Z-matrix:
 Charge =  0 Multiplicity = 1
 C                    -0.69534   1.20431   0. 
 C                     0.69534   1.20431   0. 
 C                     1.39071   0.        0. 
 C                     0.69534  -1.20431   0. 
 C                    -0.69534  -1.20431   0. 
 C                    -1.39071  0.         0. 
 H                    -1.23796   2.14423   0. 
 H                     1.23796   2.14424   0. 
 H                     2.47601   0.        0. 
 H                     1.23796  -2.14423   0. 
 H                    -1.23796  -2.14424   0. 
 H                    -2.47601  0.         0. 
 
 ITRead=  0  0  0  0  0  0  0  0  0  0  0  0
 MicOpt= -1 -1 -1 -1 -1 -1 -1 -1 -1 -1 -1 -1
 NAtoms=     12 NQM=       12 NQMF=       0 NMMI=      0 NMMIF=      0
                NMic=       0 NMicF=      0.
                    Isotopes and Nuclear Properties:
 (Nuclear quadrupole moments (NQMom) in fm**2, nuclear magnetic moments (NMagM)
  in nuclear magnetons)

  Atom         1           2           3           4           5           6           7           8           9          10
 IAtWgt=          12          12          12          12          12          12           1           1           1           1
 AtmWgt=  12.0000000  12.0000000  12.0000000  12.0000000  12.0000000  12.0000000   1.0078250   1.0078250   1.0078250   1.0078250
 NucSpn=           0           0           0           0           0           0           1           1           1           1
 AtZEff=  -0.0000000  -0.0000000  -0.0000000  -0.0000000  -0.0000000  -0.0000000  -0.0000000  -0.0000000  -0.0000000  -0.0000000
 NQMom=    0.0000000   0.0000000   0.0000000   0.0000000   0.0000000   0.0000000   0.0000000   0.0000000   0.0000000   0.0000000
 NMagM=    0.0000000   0.0000000   0.0000000   0.0000000   0.0000000   0.0000000   2.7928460   2.7928460   2.7928460   2.7928460
 AtZNuc=   6.0000000   6.0000000   6.0000000   6.0000000   6.0000000   6.0000000   1.0000000   1.0000000   1.0000000   1.0000000

  Atom        11          12
 IAtWgt=           1           1
 AtmWgt=   1.0078250   1.0078250
 NucSpn=           1           1
 AtZEff=  -0.0000000  -0.0000000
 NQMom=    0.0000000   0.0000000
 NMagM=    2.7928460   2.7928460
 AtZNuc=   1.0000000   1.0000000
 Leave Link  101 at Wed Jan  8 10:38:18 2025, MaxMem=   104857600 cpu:               0.0 elap:               0.0
 (Enter /sw/cluster/pub/apps//g16/l202.exe)
                          Input orientation:                          
 ---------------------------------------------------------------------
 Center     Atomic      Atomic             Coordinates (Angstroms)
 Number     Number       Type             X           Y           Z
 ---------------------------------------------------------------------
      1          6           0       -0.695342    1.204305    0.000000
      2          6           0        0.695340    1.204306    0.000000
      3          6           0        1.390708    0.000001    0.000000
      4          6           0        0.695342   -1.204305    0.000000
      5          6           0       -0.695341   -1.204306    0.000000
      6          6           0       -1.390709   -0.000001    0.000000
      7          1           0       -1.237959    2.144233    0.000000
      8          1           0        1.237956    2.144235    0.000000
      9          1           0        2.476011    0.000001    0.000000
     10          1           0        1.237959   -2.144234    0.000000
     11          1           0       -1.237956   -2.144235    0.000000
     12          1           0       -2.476012   -0.000002    0.000000
 ---------------------------------------------------------------------
                    Distance matrix (angstroms):
                    1          2          3          4          5
     1  C    0.000000
     2  C    1.390682   0.000000
     3  C    2.408725   1.390643   0.000000
     4  C    2.781260   2.408611   1.390643   0.000000
     5  C    2.408611   2.781260   2.408725   1.390683   0.000000
     6  C    1.390643   2.408725   2.781417   2.408725   1.390643
     7  H    1.085310   2.149676   3.392289   3.866570   3.392219
     8  H    2.149676   1.085310   2.149668   3.392219   3.866570
     9  H    3.392319   2.149684   1.085303   2.149683   3.392319
    10  H    3.866570   3.392219   2.149668   1.085310   2.149676
    11  H    3.392220   3.866570   3.392289   2.149676   1.085310
    12  H    2.149684   3.392319   3.866720   3.392319   2.149683
                    6          7          8          9         10
     6  C    0.000000
     7  H    2.149668   0.000000
     8  H    3.392289   2.475914   0.000000
     9  H    3.866720   4.288508   2.475989   0.000000
    10  H    3.392289   4.951880   4.288469   2.475988   0.000000
    11  H    2.149668   4.288469   4.951880   4.288508   2.475914
    12  H    1.085303   2.475989   4.288508   4.952023   4.288508
                   11         12
    11  H    0.000000
    12  H    2.475989   0.000000
 Stoichiometry    C6H6
 Framework group  C2H[SGH(C6H6)]
 Deg. of freedom    11
 Full point group                 C2H     NOp   4
 Largest Abelian subgroup         C2H     NOp   4
 Largest concise Abelian subgroup C2      NOp   2
                         Standard orientation:                         
 ---------------------------------------------------------------------
 Center     Atomic      Atomic             Coordinates (Angstroms)
 Number     Number       Type             X           Y           Z
 ---------------------------------------------------------------------
      1          6           0       -1.204306   -0.695341    0.000000
      2          6           0       -1.204306    0.695341    0.000000
      3          6           0        0.000000    1.390709    0.000000
      4          6           0        1.204306    0.695341    0.000000
      5          6           0        1.204306   -0.695341    0.000000
      6          6           0       -0.000000   -1.390709    0.000000
      7          1           0       -2.144234   -1.237957    0.000000
      8          1           0       -2.144234    1.237957    0.000000
      9          1           0        0.000000    2.476012    0.000000
     10          1           0        2.144234    1.237957    0.000000
     11          1           0        2.144234   -1.237957    0.000000
     12          1           0       -0.000000   -2.476012    0.000000
 ---------------------------------------------------------------------
 Rotational constants (GHZ):           5.7330546           5.7324561           2.8663777
 Leave Link  202 at Wed Jan  8 10:38:18 2025, MaxMem=   104857600 cpu:               0.0 elap:               0.0
 (Enter /sw/cluster/pub/apps//g16/l301.exe)
 Standard basis: 6-311++G(d,p) (5D, 7F)
 Ernie: Thresh=  0.10000D-02 Tol=  0.10000D-05 Strict=F.
 There are    69 symmetry adapted cartesian basis functions of AG  symmetry.
 There are    21 symmetry adapted cartesian basis functions of BG  symmetry.
 There are    21 symmetry adapted cartesian basis functions of AU  symmetry.
 There are    69 symmetry adapted cartesian basis functions of BU  symmetry.
 There are    66 symmetry adapted basis functions of AG  symmetry.
 There are    21 symmetry adapted basis functions of BG  symmetry.
 There are    21 symmetry adapted basis functions of AU  symmetry.
 There are    66 symmetry adapted basis functions of BU  symmetry.
   174 basis functions,   270 primitive gaussians,   180 cartesian basis functions
    21 alpha electrons       21 beta electrons
       nuclear repulsion energy       203.9742418288 Hartrees.
 IExCor= 1009 DFT=T Ex+Corr=PBE0DH ExCW=0 ScaHFX=  0.500000
 ScaDFX=  0.500000  0.500000  0.875000  0.875000 ScalE2=  0.125000  0.125000
 IRadAn=      5 IRanWt=     -1 IRanGd=            0 ICorTp=0 IEmpDi=  4
 NAtoms=   12 NActive=   12 NUniq=    6 SFac= 4.00D+00 NAtFMM=   60 NAOKFM=F Big=F
 Integral buffers will be    131072 words long.
 Regular integral format.
 Two-electron integral symmetry is turned on.
 Leave Link  301 at Wed Jan  8 10:38:18 2025, MaxMem=   104857600 cpu:               0.0 elap:               0.1
 (Enter /sw/cluster/pub/apps//g16/l302.exe)
 NPDir=0 NMtPBC=     1 NCelOv=     1 NCel=       1 NClECP=     1 NCelD=      1
         NCelK=      1 NCelE2=     1 NClLst=     1 CellRange=     0.0.
 One-electron integrals computed using PRISM.
 One-electron integral symmetry used in STVInt
 NBasis=   174 RedAO= T EigKep=  1.04D-06  NBF=    66    21    21    66
 NBsUse=   174 1.00D-06 EigRej= -1.00D+00 NBFU=    66    21    21    66
 Precomputing XC quadrature grid using
 IXCGrd= 4 IRadAn=           5 IRanWt=          -1 IRanGd=           0 AccXCQ= 0.00D+00.
 Generated NRdTot=       0 NPtTot=           0 NUsed=           0 NTot=          32
 NSgBfM=   180   180   180   180   180 MxSgAt=    12 MxSgA2=    12.
 Leave Link  302 at Wed Jan  8 10:38:19 2025, MaxMem=   104857600 cpu:               0.1 elap:               0.4
 (Enter /sw/cluster/pub/apps//g16/l303.exe)
 DipDrv:  MaxL=1.
 Leave Link  303 at Wed Jan  8 10:38:19 2025, MaxMem=   104857600 cpu:               0.0 elap:               0.0
 (Enter /sw/cluster/pub/apps//g16/l401.exe)
 ExpMin= 3.60D-02 ExpMax= 4.56D+03 ExpMxC= 6.82D+02 IAcc=3 IRadAn=         5 AccDes= 0.00D+00
 Harris functional with IExCor= 1009 and IRadAn=       5 diagonalized for initial guess.
 HarFok:  IExCor= 1009 AccDes= 0.00D+00 IRadAn=         5 IDoV= 1 UseB2=F ITyADJ=14
 ICtDFT=  3500011 ScaDFX=  1.000000  1.000000  1.000000  1.000000
 FoFCou: FMM=F IPFlag=           0 FMFlag=      100000 FMFlg1=           0
         NFxFlg=           0 DoJE=T BraDBF=F KetDBF=T FulRan=T
         wScrn=  0.000000 ICntrl=       500 IOpCl=  0 I1Cent=   200000004 NGrid=           0
         NMat0=    1 NMatS0=      1 NMatT0=    0 NMatD0=    1 NMtDS0=    0 NMtDT0=    0
 Petite list used in FoFCou.
 Harris En= -232.123929904935    
 JPrj=0 DoOrth=F DoCkMO=F.
 Initial guess orbital symmetries:
       Occupied  (AG) (BU) (BU) (AG) (AG) (BU) (AG) (BU) (BU) (AG)
                 (AG) (AG) (BU) (BU) (BU) (BU) (AU) (AG) (AG) (BG)
                 (BG)
       Virtual   (AU) (AU) (AG) (BU) (BU) (BG) (AG) (AG) (AG) (AU)
                 (BU) (BG) (BG) (BU) (AG) (BU) (BU) (AG) (AG) (BU)
                 (BU) (AU) (AU) (BU) (AG) (AG) (BU) (BU) (BG) (AG)
                 (AG) (AG) (AG) (AG) (BU) (BU) (BU) (AG) (BU) (BU)
                 (BU) (AG) (AG) (BU) (AG) (AG) (BU) (AU) (BU) (BU)
                 (AG) (AG) (AG) (BG) (BG) (AU) (AU) (BG) (AG) (AG)
                 (BU) (BU) (BU) (AG) (AG) (BU) (BU) (BU) (BU) (AU)
                 (AG) (AG) (BU) (BG) (BG) (BG) (AG) (AG) (AU) (AU)
                 (AG) (BU) (BU) (BU) (BU) (AG) (AU) (AU) (BG) (AG)
                 (AG) (BU) (BU) (AU) (BG) (BG) (AG) (AG) (BU) (BG)
                 (BG) (BU) (BU) (AG) (BU) (AG) (AG) (AU) (AU) (BG)
                 (AU) (AG) (AG) (AG) (BU) (BU) (AU) (BU) (BU) (BU)
                 (AG) (BG) (BG) (BU) (BU) (AG) (AG) (BU) (AU) (AU)
                 (AG) (AG) (AG) (BU) (BG) (AG) (AG) (BU) (BU) (AG)
                 (BU) (AG) (AG) (BU) (BU) (BU) (AG) (AG) (BU) (BU)
                 (AG) (AG) (BU)
 The electronic state of the initial guess is 1-AG.
 Leave Link  401 at Wed Jan  8 10:38:20 2025, MaxMem=   104857600 cpu:               0.3 elap:               0.4
 (Enter /sw/cluster/pub/apps//g16/l502.exe)
 Integral symmetry usage will be decided dynamically.
 Closed shell SCF:
 Using DIIS extrapolation, IDIIS=  1040.
 NGot=   104857600 LenX=   104788608 LenY=   104755767
 Requested convergence on RMS density matrix=1.00D-08 within 128 cycles.
 Requested convergence on MAX density matrix=1.00D-06.
 Requested convergence on             energy=1.00D-06.
 No special actions if energy rises.
 Fock matrices will be formed incrementally for  20 cycles.

 Cycle   1  Pass 1  IDiag  1:
 FoFJK:  IHMeth= 1 ICntrl=       0 DoSepK=F KAlg= 0 I1Cent=           0 FoldK=F
 IRaf= 990000000 NMat=       1 IRICut=       1 DoRegI=T DoRafI=F ISym2E= 1 IDoP0=0 IntGTp=1.
 FoFCou: FMM=F IPFlag=           0 FMFlag=      100000 FMFlg1=           0
         NFxFlg=           0 DoJE=F BraDBF=F KetDBF=F FulRan=T
         wScrn=  0.000000 ICntrl=         0 IOpCl=  0 I1Cent=           0 NGrid=           0
         NMat0=    1 NMatS0=      1 NMatT0=    0 NMatD0=    1 NMtDS0=    0 NMtDT0=    0
 Petite list used in FoFCou.
 E= -231.704480529112    
 DIIS: error= 5.35D-02 at cycle   1 NSaved=   1.
 NSaved= 1 IEnMin= 1 EnMin= -231.704480529112     IErMin= 1 ErrMin= 5.35D-02
 ErrMax= 5.35D-02  0.00D+00 EMaxC= 1.00D-01 BMatC= 1.96D-01 BMatP= 1.96D-01
 IDIUse=3 WtCom= 4.65D-01 WtEn= 5.35D-01
 Coeff-Com:  0.100D+01
 Coeff-En:   0.100D+01
 Coeff:      0.100D+01
 Gap=     0.244 Goal=   None    Shift=    0.000
 GapD=    0.244 DampG=1.000 DampE=0.500 DampFc=0.5000 IDamp=-1.
 Damping current iteration by 5.00D-01
 RMSDP=6.09D-03 MaxDP=1.54D-01              OVMax= 1.53D-01

 Cycle   2  Pass 1  IDiag  1:
 RMSU=  2.87D-03    CP:  1.05D+00
 E= -231.795536385217     Delta-E=       -0.091055856105 Rises=F Damp=T
 DIIS: error= 1.36D-02 at cycle   2 NSaved=   2.
 NSaved= 2 IEnMin= 2 EnMin= -231.795536385217     IErMin= 2 ErrMin= 1.36D-02
 ErrMax= 1.36D-02  0.00D+00 EMaxC= 1.00D-01 BMatC= 1.82D-02 BMatP= 1.96D-01
 IDIUse=3 WtCom= 8.64D-01 WtEn= 1.36D-01
 Coeff-Com: -0.215D+00 0.122D+01
 Coeff-En:   0.000D+00 0.100D+01
 Coeff:     -0.186D+00 0.119D+01
 Gap=     0.326 Goal=   None    Shift=    0.000
 RMSDP=4.78D-03 MaxDP=1.42D-01 DE=-9.11D-02 OVMax= 7.10D-02

 Cycle   3  Pass 1  IDiag  1:
 RMSU=  3.40D-03    CP:  1.16D+00  1.93D+00
 E= -231.878254549541     Delta-E=       -0.082718164324 Rises=F Damp=F
 DIIS: error= 5.21D-03 at cycle   3 NSaved=   3.
 NSaved= 3 IEnMin= 3 EnMin= -231.878254549541     IErMin= 3 ErrMin= 5.21D-03
 ErrMax= 5.21D-03  0.00D+00 EMaxC= 1.00D-01 BMatC= 1.84D-03 BMatP= 1.82D-02
 IDIUse=3 WtCom= 9.48D-01 WtEn= 5.21D-02
 Coeff-Com: -0.107D+00 0.284D+00 0.823D+00
 Coeff-En:   0.000D+00 0.000D+00 0.100D+01
 Coeff:     -0.101D+00 0.269D+00 0.832D+00
 Gap=     0.317 Goal=   None    Shift=    0.000
 RMSDP=5.41D-04 MaxDP=1.26D-02 DE=-8.27D-02 OVMax= 9.40D-03

 Cycle   4  Pass 1  IDiag  1:
 RMSU=  3.18D-04    CP:  1.17D+00  2.07D+00  1.04D+00
 E= -231.879936334927     Delta-E=       -0.001681785387 Rises=F Damp=F
 DIIS: error= 6.30D-04 at cycle   4 NSaved=   4.
 NSaved= 4 IEnMin= 4 EnMin= -231.879936334927     IErMin= 4 ErrMin= 6.30D-04
 ErrMax= 6.30D-04  0.00D+00 EMaxC= 1.00D-01 BMatC= 2.73D-05 BMatP= 1.84D-03
 IDIUse=3 WtCom= 9.94D-01 WtEn= 6.30D-03
 Coeff-Com: -0.127D-01 0.160D-01 0.144D+00 0.853D+00
 Coeff-En:   0.000D+00 0.000D+00 0.000D+00 0.100D+01
 Coeff:     -0.126D-01 0.159D-01 0.143D+00 0.854D+00
 Gap=     0.317 Goal=   None    Shift=    0.000
 RMSDP=4.16D-05 MaxDP=5.92D-04 DE=-1.68D-03 OVMax= 8.82D-04

 Cycle   5  Pass 1  IDiag  1:
 RMSU=  3.59D-05    CP:  1.17D+00  2.07D+00  1.04D+00  9.70D-01
 E= -231.879959541066     Delta-E=       -0.000023206139 Rises=F Damp=F
 DIIS: error= 4.47D-05 at cycle   5 NSaved=   5.
 NSaved= 5 IEnMin= 5 EnMin= -231.879959541066     IErMin= 5 ErrMin= 4.47D-05
 ErrMax= 4.47D-05  0.00D+00 EMaxC= 1.00D-01 BMatC= 9.33D-08 BMatP= 2.73D-05
 IDIUse=1 WtCom= 1.00D+00 WtEn= 0.00D+00
 Coeff-Com:  0.240D-02-0.427D-02-0.230D-01-0.898D-01 0.111D+01
 Coeff:      0.240D-02-0.427D-02-0.230D-01-0.898D-01 0.111D+01
 Gap=     0.317 Goal=   None    Shift=    0.000
 RMSDP=1.12D-05 MaxDP=2.41D-04 DE=-2.32D-05 OVMax= 1.42D-04

 Cycle   6  Pass 1  IDiag  1:
 RMSU=  3.80D-06    CP:  1.17D+00  2.07D+00  1.04D+00  9.82D-01  1.18D+00
 E= -231.879959709987     Delta-E=       -0.000000168921 Rises=F Damp=F
 DIIS: error= 3.14D-06 at cycle   6 NSaved=   6.
 NSaved= 6 IEnMin= 6 EnMin= -231.879959709987     IErMin= 6 ErrMin= 3.14D-06
 ErrMax= 3.14D-06  0.00D+00 EMaxC= 1.00D-01 BMatC= 6.63D-10 BMatP= 9.33D-08
 IDIUse=1 WtCom= 1.00D+00 WtEn= 0.00D+00
 Coeff-Com: -0.447D-04 0.110D-03-0.157D-03-0.973D-03-0.562D-01 0.106D+01
 Coeff:     -0.447D-04 0.110D-03-0.157D-03-0.973D-03-0.562D-01 0.106D+01
 Gap=     0.317 Goal=   None    Shift=    0.000
 RMSDP=2.44D-06 MaxDP=7.13D-05 DE=-1.69D-07 OVMax= 1.21D-05

 Cycle   7  Pass 1  IDiag  1:
 RMSU=  3.17D-07    CP:  1.17D+00  2.07D+00  1.04D+00  9.80D-01  1.20D+00
                    CP:  1.17D+00
 E= -231.879959711179     Delta-E=       -0.000000001191 Rises=F Damp=F
 DIIS: error= 3.63D-07 at cycle   7 NSaved=   7.
 NSaved= 7 IEnMin= 7 EnMin= -231.879959711179     IErMin= 7 ErrMin= 3.63D-07
 ErrMax= 3.63D-07  0.00D+00 EMaxC= 1.00D-01 BMatC= 1.11D-11 BMatP= 6.63D-10
 IDIUse=1 WtCom= 1.00D+00 WtEn= 0.00D+00
 Coeff-Com: -0.669D-05 0.140D-04 0.518D-04 0.127D-03-0.654D-02 0.437D-01
 Coeff-Com:  0.963D+00
 Coeff:     -0.669D-05 0.140D-04 0.518D-04 0.127D-03-0.654D-02 0.437D-01
 Coeff:      0.963D+00
 Gap=     0.317 Goal=   None    Shift=    0.000
 RMSDP=2.07D-07 MaxDP=5.86D-06 DE=-1.19D-09 OVMax= 1.59D-06

 Cycle   8  Pass 1  IDiag  1:
 RMSU=  3.72D-08    CP:  1.17D+00  2.07D+00  1.04D+00  9.80D-01  1.20D+00
                    CP:  1.18D+00  1.08D+00
 E= -231.879959711188     Delta-E=       -0.000000000009 Rises=F Damp=F
 DIIS: error= 3.39D-07 at cycle   8 NSaved=   8.
 NSaved= 8 IEnMin= 8 EnMin= -231.879959711188     IErMin= 8 ErrMin= 3.39D-07
 ErrMax= 3.39D-07  0.00D+00 EMaxC= 1.00D-01 BMatC= 7.22D-12 BMatP= 1.11D-11
 IDIUse=1 WtCom= 1.00D+00 WtEn= 0.00D+00
 Coeff-Com:  0.669D-07-0.108D-05 0.336D-04 0.107D-03 0.606D-03-0.492D-01
 Coeff-Com:  0.467D+00 0.581D+00
 Coeff:      0.669D-07-0.108D-05 0.336D-04 0.107D-03 0.606D-03-0.492D-01
 Coeff:      0.467D+00 0.581D+00
 Gap=     0.317 Goal=   None    Shift=    0.000
 RMSDP=3.26D-08 MaxDP=9.36D-07 DE=-9.15D-12 OVMax= 7.90D-07

 Cycle   9  Pass 1  IDiag  1:
 RMSU=  1.00D-08    CP:  1.17D+00  2.07D+00  1.04D+00  9.80D-01  1.20D+00
                    CP:  1.19D+00  1.10D+00  6.91D-01
 E= -231.879959711194     Delta-E=       -0.000000000006 Rises=F Damp=F
 DIIS: error= 1.35D-08 at cycle   9 NSaved=   9.
 NSaved= 9 IEnMin= 9 EnMin= -231.879959711194     IErMin= 9 ErrMin= 1.35D-08
 ErrMax= 1.35D-08  0.00D+00 EMaxC= 1.00D-01 BMatC= 1.79D-14 BMatP= 7.22D-12
 IDIUse=1 WtCom= 1.00D+00 WtEn= 0.00D+00
 Coeff-Com:  0.203D-06-0.435D-06-0.274D-05-0.140D-04 0.235D-03 0.719D-03
 Coeff-Com: -0.591D-01-0.274D-01 0.109D+01
 Coeff:      0.203D-06-0.435D-06-0.274D-05-0.140D-04 0.235D-03 0.719D-03
 Coeff:     -0.591D-01-0.274D-01 0.109D+01
 Gap=     0.317 Goal=   None    Shift=    0.000
 RMSDP=3.29D-09 MaxDP=6.14D-08 DE=-6.37D-12 OVMax= 5.38D-08

 SCF Done:  E(RPBE0DH) =  -231.879959711     A.U. after    9 cycles
            NFock=  9  Conv=0.33D-08     -V/T= 2.0046
 KE= 2.308290088278D+02 PE=-9.457873394132D+02 EE= 2.791041290453D+02
 Leave Link  502 at Wed Jan  8 10:38:27 2025, MaxMem=   104857600 cpu:               6.7 elap:               6.8
 (Enter /sw/cluster/pub/apps//g16/l801.exe)
 DoSCS=T DFT=T ScalE2(SS,OS)=  0.125000  0.125000
 ExpMin= 3.60D-02 ExpMax= 4.56D+03 ExpMxC= 6.82D+02 IAcc=3 IRadAn=         5 AccDes= 0.00D+00
 HarFok:  IExCor=  205 AccDes= 0.00D+00 IRadAn=         5 IDoV=-2 UseB2=F ITyADJ=14
 ICtDFT= 12500011 ScaDFX=  1.000000  1.000000  1.000000  1.000000
 Largest valence mixing into a core orbital is  7.85D-05
 Largest core mixing into a valence orbital is  2.12D-05
 Range of M.O.s used for correlation:     7   174
 NBasis=   174 NAE=    21 NBE=    21 NFC=     6 NFV=     0
 NROrb=    168 NOA=    15 NOB=    15 NVA=   153 NVB=   153

 **** Warning!!: The largest alpha MO coefficient is  0.22836021D+03

 Leave Link  801 at Wed Jan  8 10:38:27 2025, MaxMem=   104857600 cpu:               0.2 elap:               0.2
 (Enter /sw/cluster/pub/apps//g16/l906.exe)
 DoSCS=T DFT=T ScalE2(SS,OS)=  0.125000  0.125000
 Frozen-core derivative calculation, NFC=   6 NFV=   0.
 FulOut=F Deriv=T AODrv=F NAtomX=    12
   MMem=          68  MDisk=          15 MDiskD=          15
  W3Min=      657720 MinDsk=     1009670 NBas6D=         180
 NBas2D=       16542    NTT=       16290    LW2=     2040000
    MDV=   104471050 MDiskM=        7906 NBas2p=        8385
 Fully direct method using O(ONN) memory.
 IMap=   1   2   3   4   5   6   7   8   9  10  11  12  13  14  15  16  17  18  19  20
 IMap=  21
 JobTyp=1 Pass  1:  I=   7 to  21 NPSUse=  1 ParTrn=F ParDer=F DoDerP=T.
 Spin components of T(2) and E(2):
     alpha-alpha T2 =       0.6861085188D-01 E2=     -0.1697800835D-01
     alpha-beta  T2 =       0.3573394869D+00 E2=     -0.9485987563D-01
     beta-beta   T2 =       0.6861085188D-01 E2=     -0.1697800835D-01
 The integrals were generated   1 times.
 E2(PBE0DH) =    -0.1288158923D+00 E(PBE0DH) =    -0.23200877560353D+03
 Leave Link  906 at Wed Jan  8 10:38:30 2025, MaxMem=   104857600 cpu:               2.6 elap:               2.6
 (Enter /sw/cluster/pub/apps//g16/l1002.exe)
 Minotr:  Closed shell wavefunction.
          Computing MP2/KS-MP2 derivatives.
          Using Z-Vector for PSCF gradient.
          Skipping F1 and S1 gradient terms here.
          Frozen-core window.
          Direct CPHF calculation.
          Differentiating once with respect to electric field.
                with respect to dipole field.
          Electric field/nuclear overlap derivatives assumed to be zero.
          Using symmetry in CPHF.
          Requested convergence is 1.0D-10 RMS, and 1.0D-09 maximum.
          NewPWx=F KeepS1=T KeepF1=T KeepIn=T MapXYZ=F SortEE=F KeepMc=T.
 Two-electron integral symmetry used by symmetrizing perturbed Fock matrices.
          MDV=     104857600 using IRadAn=       5.
          Solving linear equations separately, MaxMat=     384.
          There are     1 degrees of freedom in the 1st order CPHF.  IDoFFX=0 NUNeed=     1.
 FoFJK:  IHMeth= 1 ICntrl=       0 DoSepK=F KAlg= 0 I1Cent=           0 FoldK=F
 IRaf= 990000000 NMat=       1 IRICut=       1 DoRegI=T DoRafI=F ISym2E=-1 IDoP0=0 IntGTp=1.
 FoFCou: FMM=F IPFlag=           0 FMFlag=      100000 FMFlg1=           0
         NFxFlg=           0 DoJE=F BraDBF=F KetDBF=F FulRan=T
         wScrn=  0.000000 ICntrl=         0 IOpCl=  0 I1Cent=           0 NGrid=           0
         NMat0=    1 NMatS0=      1 NMatT0=    0 NMatD0=    1 NMtDS0=    0 NMtDT0=    0
 Petite list used in FoFCou.
 LinEq1:  Iter=  0 NonCon=     1 RMS=6.52D-04 Max=1.39D-02 NDo=     1
 AX will form     1 AO Fock derivatives at one time.
 LinEq1:  Iter=  1 NonCon=     1 RMS=2.06D-04 Max=3.11D-03 NDo=     1
 LinEq1:  Iter=  2 NonCon=     1 RMS=5.15D-05 Max=1.00D-03 NDo=     1
 LinEq1:  Iter=  3 NonCon=     1 RMS=1.33D-05 Max=2.28D-04 NDo=     1
 LinEq1:  Iter=  4 NonCon=     1 RMS=1.53D-06 Max=2.71D-05 NDo=     1
 LinEq1:  Iter=  5 NonCon=     1 RMS=9.65D-08 Max=1.48D-06 NDo=     1
 LinEq1:  Iter=  6 NonCon=     1 RMS=9.01D-09 Max=1.48D-07 NDo=     1
 LinEq1:  Iter=  7 NonCon=     1 RMS=4.67D-09 Max=1.07D-07 NDo=     1
 LinEq1:  Iter=  8 NonCon=     1 RMS=5.97D-10 Max=7.36D-09 NDo=     1
 LinEq1:  Iter=  9 NonCon=     0 RMS=2.67D-11 Max=4.32D-10 NDo=     1
 Linear equations converged to 1.000D-10 1.000D-09 after     9 iterations.
 End of Minotr F.D. properties file   721 does not exist.
 End of Minotr F.D. properties file   722 does not exist.
 End of Minotr F.D. properties file   788 does not exist.
 Leave Link 1002 at Wed Jan  8 10:38:42 2025, MaxMem=   104857600 cpu:              11.8 elap:              11.9
 (Enter /sw/cluster/pub/apps//g16/l601.exe)
 Copying SCF densities to generalized density rwf, IOpCl= 0 IROHF=0.

 **********************************************************************

            Population analysis using the MP2 density.

 **********************************************************************

 Orbital symmetries:
       Occupied  (AG) (BU) (BU) (AG) (AG) (BU) (AG) (BU) (BU) (AG)
                 (AG) (AG) (BU) (BU) (BU) (BU) (AU) (AG) (AG) (BG)
                 (BG)
       Virtual   (AG) (AU) (AU) (BU) (BU) (AG) (AG) (BU) (AU) (AG)
                 (BG) (BG) (BU) (AG) (AG) (AG) (BU) (BU) (AU) (AU)
                 (BG) (BU) (BU) (AG) (AG) (BU) (BU) (BU) (AG) (AG)
                 (BG) (AG) (AG) (BU) (BU) (BU) (AG) (AG) (BU) (AG)
                 (AG) (BU) (BU) (BU) (AG) (AU) (BU) (BU) (BU) (AG)
                 (AG) (AG) (BG) (BG) (AG) (AU) (AU) (BG) (AG) (AG)
                 (BU) (BU) (AG) (BU) (BU) (BU) (AG) (AG) (BU) (AG)
                 (BU) (BU) (AU) (BG) (AG) (AG) (BG) (BG) (AU) (AU)
                 (AG) (BU) (BU) (BU) (BU) (AG) (BG) (AU) (AU) (AG)
                 (AG) (BU) (BU) (AU) (BG) (BG) (AG) (AG) (BU) (BG)
                 (BG) (BU) (BU) (AG) (BU) (AG) (AG) (AU) (AU) (BG)
                 (AU) (AG) (AG) (AG) (BU) (BU) (BU) (BU) (BU) (AG)
                 (AU) (BU) (BU) (AG) (AG) (BU) (BG) (BG) (AG) (AU)
                 (AU) (AG) (AG) (BG) (BU) (AG) (AG) (BU) (BU) (AG)
                 (BU) (AG) (AG) (BU) (BU) (BU) (AG) (AG) (BU) (BU)
                 (AG) (AG) (BU)
 The electronic state is 1-AG.
 Alpha  occ. eigenvalues --  -10.56949 -10.56910 -10.56910 -10.56825 -10.56825
 Alpha  occ. eigenvalues --  -10.56784  -0.98380  -0.86268  -0.86266  -0.69945
 Alpha  occ. eigenvalues --   -0.69945  -0.60770  -0.53908  -0.52505  -0.49486
 Alpha  occ. eigenvalues --   -0.49483  -0.43403  -0.40960  -0.40959  -0.30005
 Alpha  occ. eigenvalues --   -0.30003
 Alpha virt. eigenvalues --    0.01733   0.02671   0.02671   0.03080   0.03080
 Alpha virt. eigenvalues --    0.05130   0.05130   0.07716   0.09075   0.10598
 Alpha virt. eigenvalues --    0.11664   0.11665   0.12636   0.14333   0.14580
 Alpha virt. eigenvalues --    0.14580   0.14764   0.14764   0.16817   0.16817
 Alpha virt. eigenvalues --    0.16875   0.17978   0.17978   0.18191   0.18191
 Alpha virt. eigenvalues --    0.18192   0.22345   0.22345   0.24991   0.24992
 Alpha virt. eigenvalues --    0.25110   0.27012   0.28487   0.30410   0.32578
 Alpha virt. eigenvalues --    0.32579   0.34426   0.34427   0.36548   0.40539
 Alpha virt. eigenvalues --    0.40540   0.41233   0.41233   0.50301   0.51834
 Alpha virt. eigenvalues --    0.59547   0.60846   0.60846   0.60990   0.62488
 Alpha virt. eigenvalues --    0.63051   0.63052   0.63936   0.63936   0.67010
 Alpha virt. eigenvalues --    0.69085   0.69086   0.75107   0.80507   0.80511
 Alpha virt. eigenvalues --    0.80912   0.80912   0.84768   0.89502   0.90325
 Alpha virt. eigenvalues --    0.90325   0.94483   0.94483   0.95145   0.96880
 Alpha virt. eigenvalues --    0.97346   0.97346   1.00734   1.08495   1.08751
 Alpha virt. eigenvalues --    1.08752   1.15608   1.15611   1.22012   1.22013
 Alpha virt. eigenvalues --    1.38367   1.39522   1.54231   1.60805   1.60810
 Alpha virt. eigenvalues --    1.61605   1.65358   1.66168   1.66170   1.73209
 Alpha virt. eigenvalues --    1.73211   1.75346   1.75349   1.80429   1.86516
 Alpha virt. eigenvalues --    1.86518   1.91979   1.91981   1.94231   2.03207
 Alpha virt. eigenvalues --    2.03208   2.05152   2.05156   2.05710   2.10027
 Alpha virt. eigenvalues --    2.13734   2.13736   2.17857   2.17861   2.43037
 Alpha virt. eigenvalues --    2.45292   2.52073   2.53591   2.53593   2.59057
 Alpha virt. eigenvalues --    2.59060   2.74332   2.74334   2.78888   2.79343
 Alpha virt. eigenvalues --    2.80736   2.82670   2.82671   2.85478   2.85478
 Alpha virt. eigenvalues --    2.89431   2.94308   2.94309   3.03776   3.04164
 Alpha virt. eigenvalues --    3.04166   3.09261   3.09265   3.23147   3.28366
 Alpha virt. eigenvalues --    3.51297   3.51302   3.64600   3.64604   3.66239
 Alpha virt. eigenvalues --    3.83530   4.14486   4.14489   4.23603   4.30638
 Alpha virt. eigenvalues --    4.30643   5.00685  24.04081  24.43666  24.43674
 Alpha virt. eigenvalues --   24.56358  24.56368  24.67576
          Condensed to atoms (all electrons):
               1          2          3          4          5          6
     1  C    5.968937  -0.352481   0.596590  -0.560901   0.596521  -0.352641
     2  C   -0.352481   5.968937  -0.352641   0.596521  -0.560901   0.596590
     3  C    0.596590  -0.352641   5.969344  -0.352641   0.596590  -0.561024
     4  C   -0.560901   0.596521  -0.352641   5.968937  -0.352481   0.596590
     5  C    0.596521  -0.560901   0.596590  -0.352481   5.968937  -0.352641
     6  C   -0.352641   0.596590  -0.561024   0.596590  -0.352641   5.969344
     7  H    0.364582  -0.025533  -0.007542   0.013494  -0.007539  -0.025545
     8  H   -0.025533   0.364582  -0.025545  -0.007539   0.013494  -0.007542
     9  H   -0.007546  -0.025517   0.364567  -0.025517  -0.007546   0.013495
    10  H    0.013494  -0.007539  -0.025545   0.364582  -0.025533  -0.007542
    11  H   -0.007539   0.013494  -0.007542  -0.025533   0.364582  -0.025545
    12  H   -0.025517  -0.007546   0.013495  -0.007546  -0.025517   0.364567
               7          8          9         10         11         12
     1  C    0.364582  -0.025533  -0.007546   0.013494  -0.007539  -0.025517
     2  C   -0.025533   0.364582  -0.025517  -0.007539   0.013494  -0.007546
     3  C   -0.007542  -0.025545   0.364567  -0.025545  -0.007542   0.013495
     4  C    0.013494  -0.007539  -0.025517   0.364582  -0.025533  -0.007546
     5  C   -0.007539   0.013494  -0.007546  -0.025533   0.364582  -0.025517
     6  C   -0.025545  -0.007542   0.013495  -0.007542  -0.025545   0.364567
     7  H    0.481884  -0.000670  -0.000716   0.000957  -0.000715  -0.000671
     8  H   -0.000670   0.481884  -0.000671  -0.000715   0.000957  -0.000716
     9  H   -0.000716  -0.000671   0.481866  -0.000671  -0.000716   0.000957
    10  H    0.000957  -0.000715  -0.000671   0.481884  -0.000670  -0.000716
    11  H   -0.000715   0.000957  -0.000716  -0.000670   0.481884  -0.000671
    12  H   -0.000671  -0.000716   0.000957  -0.000716  -0.000671   0.481866
 Mulliken charges:
               1
     1  C   -0.207966
     2  C   -0.207966
     3  C   -0.208107
     4  C   -0.207966
     5  C   -0.207966
     6  C   -0.208107
     7  H    0.208013
     8  H    0.208013
     9  H    0.208013
    10  H    0.208013
    11  H    0.208013
    12  H    0.208013
 Sum of Mulliken charges =  -0.00000
 Mulliken charges with hydrogens summed into heavy atoms:
               1
     1  C    0.000047
     2  C    0.000047
     3  C   -0.000094
     4  C    0.000047
     5  C    0.000047
     6  C   -0.000094
 Electronic spatial extent (au):  <R**2>=            456.8055
 Charge=              0.0000 electrons
 Dipole moment (field-independent basis, Debye):
    X=              0.0000    Y=             -0.0000    Z=              0.0000  Tot=              0.0000
 Quadrupole moment (field-independent basis, Debye-Ang):
   XX=            -31.5064   YY=            -31.5054   ZZ=            -40.3287
   XY=              0.0000   XZ=             -0.0000   YZ=              0.0000
 Traceless Quadrupole moment (field-independent basis, Debye-Ang):
   XX=              2.9404   YY=              2.9415   ZZ=             -5.8819
   XY=              0.0000   XZ=             -0.0000   YZ=              0.0000
 Octapole moment (field-independent basis, Debye-Ang**2):
  XXX=              0.0000  YYY=             -0.0000  ZZZ=              0.0000  XYY=              0.0000
  XXY=             -0.0000  XXZ=              0.0000  XZZ=              0.0000  YZZ=             -0.0000
  YYZ=             -0.0000  XYZ=              0.0000
 Hexadecapole moment (field-independent basis, Debye-Ang**3):
 XXXX=           -267.6712 YYYY=           -267.6851 ZZZZ=            -48.8498 XXXY=             -0.0000
 XXXZ=             -0.0000 YYYX=              0.0000 YYYZ=              0.0000 ZZZX=             -0.0000
 ZZZY=              0.0000 XXYY=            -89.2284 XXZZ=            -64.3873 YYZZ=            -64.3909
 XXYZ=             -0.0000 YYXZ=             -0.0000 ZZXY=             -0.0000
 N-N= 2.039742418288D+02 E-N=-9.459267258926D+02  KE= 2.310158706906D+02
 Symmetry AG   KE= 1.121646043678D+02
 Symmetry BG   KE= 4.335433617902D+00
 Symmetry AU   KE= 1.891711550338D+00
 Symmetry BU   KE= 1.126241211545D+02
 No NMR shielding tensors so no spin-rotation constants.
 Leave Link  601 at Wed Jan  8 10:38:42 2025, MaxMem=   104857600 cpu:               0.1 elap:               0.1
 (Enter /sw/cluster/pub/apps//g16/l9999.exe)
 1\1\GINC-N05\SP\RPBE0DH-FC\6-311++G(d,p)\C6H6\UNKNOWN\08-Jan-2025\0\\#
 p PBE0/6-311++G(d,p) density=current\\benzene SP\\0,1\C,0,-0.695342149
 ,1.20430525,0.\C,0,0.695340276,1.204306198,0.\C,0,1.390708471,0.000000
 884,0.\C,0,0.695342043,-1.204305288,0.\C,0,-0.695340662,-1.204306245,0
 .\C,0,-1.39070864,-0.000001027,0.\H,0,-1.237958706,2.144233389,0.\H,0,
 1.237955611,2.144235066,0.\H,0,2.476011463,0.000001423,0.\H,0,1.237958
 505,-2.144233526,0.\H,0,-1.237955584,-2.144235347,0.\H,0,-2.476011633,
 -0.000001783,0.\\Version=ES64L-G16RevA.03\State=1-AG\HF=-231.8799597\M
 P2=-232.0087756\RMSD=3.288e-09\Dipole=0.,0.,0.\Quadrupole=2.1869127,2.
 1861443,-4.373057,-0.0000007,0.,0.\PG=C02H [SGH(C6H6)]\\@


 MOST BUREAUCRACIES FUNCTION LIKE A SEPTIC TANK.
 THE LARGE CHUNKS RISE TO THE TOP.
 Job cpu time:       0 days  0 hours  0 minutes 21.9 seconds.
 Elapsed time:       0 days  0 hours  0 minutes 22.7 seconds.
 File lengths (MBytes):  RWF=     20 Int=      0 D2E=      0 Chk=      4 Scr=      1
 Normal termination of Gaussian 16 at Wed Jan  8 10:38:43 2025.
