1 4-DFB SP                                                              
SP        RPBE1PBE                                                    6-311++G(d,p)       
Number of atoms                            I               12
Info1-9                                    I   N=           9
          19          19           0           0           0         110
           1          18        -302
Full Title                                 C   N=           1
1 4-DFB SP  
Route                                      C   N=           4
#p PBE1PBE/6-311++G(d,p) density=current nosymm 
Charge                                     I                0
Multiplicity                               I                1
Number of electrons                        I               58
Number of alpha electrons                  I               29
Number of beta electrons                   I               29
Number of basis functions                  I              204
Number of independent functions            I              204
Number of point charges in /Mol/           I                0
Number of translation vectors              I                0
Atomic numbers                             I   N=          12
           6           6           6           6           6           6
           1           1           1           1           9           9
Nuclear charges                            R   N=          12
  6.00000000E+00  6.00000000E+00  6.00000000E+00  6.00000000E+00  6.00000000E+00
  6.00000000E+00  1.00000000E+00  1.00000000E+00  1.00000000E+00  1.00000000E+00
  9.00000000E+00  9.00000000E+00
Current cartesian coordinates              R   N=          36
  2.28886533E+00  1.31330522E+00  1.88972612E-09  2.28886533E+00 -1.31330522E+00
 -1.88972612E-09  0.00000000E+00 -2.57666842E+00  0.00000000E+00 -2.28886533E+00
 -1.31330522E+00 -1.88972612E-09 -2.28886533E+00  1.31330522E+00  1.88972612E-09
  0.00000000E+00  2.57666842E+00  0.00000000E+00  4.03849167E+00  2.37717513E+00
  1.88972612E-09  4.03849167E+00 -2.37717513E+00 -1.88972612E-09 -4.03849167E+00
 -2.37717513E+00  0.00000000E+00 -4.03849167E+00  2.37717513E+00  0.00000000E+00
  0.00000000E+00 -5.11610687E+00  1.88972612E-09  0.00000000E+00  5.11610687E+00
 -1.88972612E-09
Number of symbols in /Mol/                 I                0
Force Field                                I                0
Atom Types                                 C   N=          12
                                                            
                                                            
                        
Int Atom Types                             I   N=          12
           0           0           0           0           0           0
           0           0           0           0           0           0
MM charges                                 R   N=          12
  0.00000000E+00  0.00000000E+00  0.00000000E+00  0.00000000E+00  0.00000000E+00
  0.00000000E+00  0.00000000E+00  0.00000000E+00  0.00000000E+00  0.00000000E+00
  0.00000000E+00  0.00000000E+00
Integer atomic weights                     I   N=          12
          12          12          12          12          12          12
           1           1           1           1          19          19
Real atomic weights                        R   N=          12
  1.20000000E+01  1.20000000E+01  1.20000000E+01  1.20000000E+01  1.20000000E+01
  1.20000000E+01  1.00782504E+00  1.00782504E+00  1.00782504E+00  1.00782504E+00
  1.89984032E+01  1.89984032E+01
Atom fragment info                         I   N=          12
           0           0           0           0           0           0
           0           0           0           0           0           0
Atom residue num                           I   N=          12
           0           0           0           0           0           0
           0           0           0           0           0           0
Nuclear spins                              I   N=          12
           0           0           0           0           0           0
           1           1           1           1           1           1
Nuclear ZEff                               R   N=          12
 -3.60000000E+00 -3.60000000E+00 -3.60000000E+00 -3.60000000E+00 -3.60000000E+00
 -3.60000000E+00 -1.00000000E+00 -1.00000000E+00 -1.00000000E+00 -1.00000000E+00
 -6.75000000E+00 -6.75000000E+00
Nuclear ZNuc                               R   N=          12
  6.00000000E+00  6.00000000E+00  6.00000000E+00  6.00000000E+00  6.00000000E+00
  6.00000000E+00  1.00000000E+00  1.00000000E+00  1.00000000E+00  1.00000000E+00
  9.00000000E+00  9.00000000E+00
Nuclear QMom                               R   N=          12
  0.00000000E+00  0.00000000E+00  0.00000000E+00  0.00000000E+00  0.00000000E+00
  0.00000000E+00  0.00000000E+00  0.00000000E+00  0.00000000E+00  0.00000000E+00
  0.00000000E+00  0.00000000E+00
Nuclear GFac                               R   N=          12
  0.00000000E+00  0.00000000E+00  0.00000000E+00  0.00000000E+00  0.00000000E+00
  0.00000000E+00  2.79284600E+00  2.79284600E+00  2.79284600E+00  2.79284600E+00
  2.62886700E+00  2.62886700E+00
MicOpt                                     I   N=          12
          -1          -1          -1          -1          -1          -1
          -1          -1          -1          -1          -1          -1
Number of residues                         I                0
Number of secondary structures             I                0
SymInf integers                            I   N=          26
           4           8           1           1           1          -1
          -1           1          -1           1          -1           1
          -1          -1          -1           1           1           1
          -1           1           1           1          -1          -1
          -1          -1
RotTr to input orientation                 R   N=          12
  3.37445951E-32  1.83697020E-16  1.00000000E+00  1.00000000E+00 -1.83697020E-16
  0.00000000E+00  1.83697020E-16  1.00000000E+00 -1.83697020E-16  0.00000000E+00
  1.53134210E-17  7.13086735E-27
Number of contracted shells                I               68
Number of primitive shells                 I              132
Pure/Cartesian d shells                    I                0
Pure/Cartesian f shells                    I                0
Highest angular momentum                   I                2
Largest degree of contraction              I                6
Shell types                                I   N=          68
           0          -1          -1          -1          -1          -2
           0          -1          -1          -1          -1          -2
           0          -1          -1          -1          -1          -2
           0          -1          -1          -1          -1          -2
           0          -1          -1          -1          -1          -2
           0          -1          -1          -1          -1          -2
           0           0           0           0           1           0
           0           0           0           1           0           0
           0           0           1           0           0           0
           0           1           0          -1          -1          -1
          -1          -2           0          -1          -1          -1
          -1          -2
Number of primitives per shell             I   N=          68
           6           3           1           1           1           1
           6           3           1           1           1           1
           6           3           1           1           1           1
           6           3           1           1           1           1
           6           3           1           1           1           1
           6           3           1           1           1           1
           3           1           1           1           1           3
           1           1           1           1           3           1
           1           1           1           3           1           1
           1           1           6           3           1           1
           1           1           6           3           1           1
           1           1
Shell to atom map                          I   N=          68
           1           1           1           1           1           1
           2           2           2           2           2           2
           3           3           3           3           3           3
           4           4           4           4           4           4
           5           5           5           5           5           5
           6           6           6           6           6           6
           7           7           7           7           7           8
           8           8           8           8           9           9
           9           9           9          10          10          10
          10          10          11          11          11          11
          11          11          12          12          12          12
          12          12
Primitive exponents                        R   N=         132
  4.56324000E+03  6.82024000E+02  1.54973000E+02  4.44553000E+01  1.30290000E+01
  1.82773000E+00  2.09642000E+01  4.80331000E+00  1.45933000E+00  4.83456000E-01
  1.45585000E-01  4.38000000E-02  6.26000000E-01  4.56324000E+03  6.82024000E+02
  1.54973000E+02  4.44553000E+01  1.30290000E+01  1.82773000E+00  2.09642000E+01
  4.80331000E+00  1.45933000E+00  4.83456000E-01  1.45585000E-01  4.38000000E-02
  6.26000000E-01  4.56324000E+03  6.82024000E+02  1.54973000E+02  4.44553000E+01
  1.30290000E+01  1.82773000E+00  2.09642000E+01  4.80331000E+00  1.45933000E+00
  4.83456000E-01  1.45585000E-01  4.38000000E-02  6.26000000E-01  4.56324000E+03
  6.82024000E+02  1.54973000E+02  4.44553000E+01  1.30290000E+01  1.82773000E+00
  2.09642000E+01  4.80331000E+00  1.45933000E+00  4.83456000E-01  1.45585000E-01
  4.38000000E-02  6.26000000E-01  4.56324000E+03  6.82024000E+02  1.54973000E+02
  4.44553000E+01  1.30290000E+01  1.82773000E+00  2.09642000E+01  4.80331000E+00
  1.45933000E+00  4.83456000E-01  1.45585000E-01  4.38000000E-02  6.26000000E-01
  4.56324000E+03  6.82024000E+02  1.54973000E+02  4.44553000E+01  1.30290000E+01
  1.82773000E+00  2.09642000E+01  4.80331000E+00  1.45933000E+00  4.83456000E-01
  1.45585000E-01  4.38000000E-02  6.26000000E-01  3.38650000E+01  5.09479000E+00
  1.15879000E+00  3.25840000E-01  1.02741000E-01  3.60000000E-02  7.50000000E-01
  3.38650000E+01  5.09479000E+00  1.15879000E+00  3.25840000E-01  1.02741000E-01
  3.60000000E-02  7.50000000E-01  3.38650000E+01  5.09479000E+00  1.15879000E+00
  3.25840000E-01  1.02741000E-01  3.60000000E-02  7.50000000E-01  3.38650000E+01
  5.09479000E+00  1.15879000E+00  3.25840000E-01  1.02741000E-01  3.60000000E-02
  7.50000000E-01  1.14271000E+04  1.72235000E+03  3.95746000E+02  1.15139000E+02
  3.36026000E+01  4.91901000E+00  5.54441000E+01  1.26323000E+01  3.71756000E+00
  1.16545000E+00  3.21892000E-01  1.07600000E-01  1.75000000E+00  1.14271000E+04
  1.72235000E+03  3.95746000E+02  1.15139000E+02  3.36026000E+01  4.91901000E+00
  5.54441000E+01  1.26323000E+01  3.71756000E+00  1.16545000E+00  3.21892000E-01
  1.07600000E-01  1.75000000E+00
Contraction coefficients                   R   N=         132
  1.96665025E-03  1.52306019E-02  7.61269097E-02  2.60801033E-01  6.16462078E-01
  2.21006028E-01  1.14660081E-01  9.19999648E-01 -3.03068213E-03  1.00000000E+00
  1.00000000E+00  1.00000000E+00  1.00000000E+00  1.96665025E-03  1.52306019E-02
  7.61269097E-02  2.60801033E-01  6.16462078E-01  2.21006028E-01  1.14660081E-01
  9.19999648E-01 -3.03068213E-03  1.00000000E+00  1.00000000E+00  1.00000000E+00
  1.00000000E+00  1.96665025E-03  1.52306019E-02  7.61269097E-02  2.60801033E-01
  6.16462078E-01  2.21006028E-01  1.14660081E-01  9.19999648E-01 -3.03068213E-03
  1.00000000E+00  1.00000000E+00  1.00000000E+00  1.00000000E+00  1.96665025E-03
  1.52306019E-02  7.61269097E-02  2.60801033E-01  6.16462078E-01  2.21006028E-01
  1.14660081E-01  9.19999648E-01 -3.03068213E-03  1.00000000E+00  1.00000000E+00
  1.00000000E+00  1.00000000E+00  1.96665025E-03  1.52306019E-02  7.61269097E-02
  2.60801033E-01  6.16462078E-01  2.21006028E-01  1.14660081E-01  9.19999648E-01
 -3.03068213E-03  1.00000000E+00  1.00000000E+00  1.00000000E+00  1.00000000E+00
  1.96665025E-03  1.52306019E-02  7.61269097E-02  2.60801033E-01  6.16462078E-01
  2.21006028E-01  1.14660081E-01  9.19999648E-01 -3.03068213E-03  1.00000000E+00
  1.00000000E+00  1.00000000E+00  1.00000000E+00  2.54938145E-02  1.90373109E-01
  8.52161486E-01  1.00000000E+00  1.00000000E+00  1.00000000E+00  1.00000000E+00
  2.54938145E-02  1.90373109E-01  8.52161486E-01  1.00000000E+00  1.00000000E+00
  1.00000000E+00  1.00000000E+00  2.54938145E-02  1.90373109E-01  8.52161486E-01
  1.00000000E+00  1.00000000E+00  1.00000000E+00  1.00000000E+00  2.54938145E-02
  1.90373109E-01  8.52161486E-01  1.00000000E+00  1.00000000E+00  1.00000000E+00
  1.00000000E+00  1.80093016E-03  1.37419012E-02  6.81334059E-02  2.33325020E-01
  5.89086051E-01  2.99505026E-01  1.14536016E-01  9.20512125E-01 -3.37804046E-03
  1.00000000E+00  1.00000000E+00  1.00000000E+00  1.00000000E+00  1.80093016E-03
  1.37419012E-02  6.81334059E-02  2.33325020E-01  5.89086051E-01  2.99505026E-01
  1.14536016E-01  9.20512125E-01 -3.37804046E-03  1.00000000E+00  1.00000000E+00
  1.00000000E+00  1.00000000E+00
P(S=P) Contraction coefficients            R   N=         132
  0.00000000E+00  0.00000000E+00  0.00000000E+00  0.00000000E+00  0.00000000E+00
  0.00000000E+00  4.02486927E-02  2.37593957E-01  8.15853851E-01  1.00000000E+00
  1.00000000E+00  1.00000000E+00  0.00000000E+00  0.00000000E+00  0.00000000E+00
  0.00000000E+00  0.00000000E+00  0.00000000E+00  0.00000000E+00  4.02486927E-02
  2.37593957E-01  8.15853851E-01  1.00000000E+00  1.00000000E+00  1.00000000E+00
  0.00000000E+00  0.00000000E+00  0.00000000E+00  0.00000000E+00  0.00000000E+00
  0.00000000E+00  0.00000000E+00  4.02486927E-02  2.37593957E-01  8.15853851E-01
  1.00000000E+00  1.00000000E+00  1.00000000E+00  0.00000000E+00  0.00000000E+00
  0.00000000E+00  0.00000000E+00  0.00000000E+00  0.00000000E+00  0.00000000E+00
  4.02486927E-02  2.37593957E-01  8.15853851E-01  1.00000000E+00  1.00000000E+00
  1.00000000E+00  0.00000000E+00  0.00000000E+00  0.00000000E+00  0.00000000E+00
  0.00000000E+00  0.00000000E+00  0.00000000E+00  4.02486927E-02  2.37593957E-01
  8.15853851E-01  1.00000000E+00  1.00000000E+00  1.00000000E+00  0.00000000E+00
  0.00000000E+00  0.00000000E+00  0.00000000E+00  0.00000000E+00  0.00000000E+00
  0.00000000E+00  4.02486927E-02  2.37593957E-01  8.15853851E-01  1.00000000E+00
  1.00000000E+00  1.00000000E+00  0.00000000E+00  0.00000000E+00  0.00000000E+00
  0.00000000E+00  0.00000000E+00  0.00000000E+00  0.00000000E+00  0.00000000E+00
  0.00000000E+00  0.00000000E+00  0.00000000E+00  0.00000000E+00  0.00000000E+00
  0.00000000E+00  0.00000000E+00  0.00000000E+00  0.00000000E+00  0.00000000E+00
  0.00000000E+00  0.00000000E+00  0.00000000E+00  0.00000000E+00  0.00000000E+00
  0.00000000E+00  0.00000000E+00  0.00000000E+00  0.00000000E+00  0.00000000E+00
  0.00000000E+00  0.00000000E+00  0.00000000E+00  0.00000000E+00  0.00000000E+00
  0.00000000E+00  0.00000000E+00  3.54608874E-02  2.37450915E-01  8.20457708E-01
  1.00000000E+00  1.00000000E+00  1.00000000E+00  0.00000000E+00  0.00000000E+00
  0.00000000E+00  0.00000000E+00  0.00000000E+00  0.00000000E+00  0.00000000E+00
  3.54608874E-02  2.37450915E-01  8.20457708E-01  1.00000000E+00  1.00000000E+00
  1.00000000E+00  0.00000000E+00
Coordinates of each shell                  R   N=         204
  2.28886533E+00  1.31330522E+00  1.88972612E-09  2.28886533E+00  1.31330522E+00
  1.88972612E-09  2.28886533E+00  1.31330522E+00  1.88972612E-09  2.28886533E+00
  1.31330522E+00  1.88972612E-09  2.28886533E+00  1.31330522E+00  1.88972612E-09
  2.28886533E+00  1.31330522E+00  1.88972612E-09  2.28886533E+00 -1.31330522E+00
 -1.88972612E-09  2.28886533E+00 -1.31330522E+00 -1.88972612E-09  2.28886533E+00
 -1.31330522E+00 -1.88972612E-09  2.28886533E+00 -1.31330522E+00 -1.88972612E-09
  2.28886533E+00 -1.31330522E+00 -1.88972612E-09  2.28886533E+00 -1.31330522E+00
 -1.88972612E-09  0.00000000E+00 -2.57666842E+00  0.00000000E+00  0.00000000E+00
 -2.57666842E+00  0.00000000E+00  0.00000000E+00 -2.57666842E+00  0.00000000E+00
  0.00000000E+00 -2.57666842E+00  0.00000000E+00  0.00000000E+00 -2.57666842E+00
  0.00000000E+00  0.00000000E+00 -2.57666842E+00  0.00000000E+00 -2.28886533E+00
 -1.31330522E+00 -1.88972612E-09 -2.28886533E+00 -1.31330522E+00 -1.88972612E-09
 -2.28886533E+00 -1.31330522E+00 -1.88972612E-09 -2.28886533E+00 -1.31330522E+00
 -1.88972612E-09 -2.28886533E+00 -1.31330522E+00 -1.88972612E-09 -2.28886533E+00
 -1.31330522E+00 -1.88972612E-09 -2.28886533E+00  1.31330522E+00  1.88972612E-09
 -2.28886533E+00  1.31330522E+00  1.88972612E-09 -2.28886533E+00  1.31330522E+00
  1.88972612E-09 -2.28886533E+00  1.31330522E+00  1.88972612E-09 -2.28886533E+00
  1.31330522E+00  1.88972612E-09 -2.28886533E+00  1.31330522E+00  1.88972612E-09
  0.00000000E+00  2.57666842E+00  0.00000000E+00  0.00000000E+00  2.57666842E+00
  0.00000000E+00  0.00000000E+00  2.57666842E+00  0.00000000E+00  0.00000000E+00
  2.57666842E+00  0.00000000E+00  0.00000000E+00  2.57666842E+00  0.00000000E+00
  0.00000000E+00  2.57666842E+00  0.00000000E+00  4.03849167E+00  2.37717513E+00
  1.88972612E-09  4.03849167E+00  2.37717513E+00  1.88972612E-09  4.03849167E+00
  2.37717513E+00  1.88972612E-09  4.03849167E+00  2.37717513E+00  1.88972612E-09
  4.03849167E+00  2.37717513E+00  1.88972612E-09  4.03849167E+00 -2.37717513E+00
 -1.88972612E-09  4.03849167E+00 -2.37717513E+00 -1.88972612E-09  4.03849167E+00
 -2.37717513E+00 -1.88972612E-09  4.03849167E+00 -2.37717513E+00 -1.88972612E-09
  4.03849167E+00 -2.37717513E+00 -1.88972612E-09 -4.03849167E+00 -2.37717513E+00
  0.00000000E+00 -4.03849167E+00 -2.37717513E+00  0.00000000E+00 -4.03849167E+00
 -2.37717513E+00  0.00000000E+00 -4.03849167E+00 -2.37717513E+00  0.00000000E+00
 -4.03849167E+00 -2.37717513E+00  0.00000000E+00 -4.03849167E+00  2.37717513E+00
  0.00000000E+00 -4.03849167E+00  2.37717513E+00  0.00000000E+00 -4.03849167E+00
  2.37717513E+00  0.00000000E+00 -4.03849167E+00  2.37717513E+00  0.00000000E+00
 -4.03849167E+00  2.37717513E+00  0.00000000E+00  0.00000000E+00 -5.11610687E+00
  1.88972612E-09  0.00000000E+00 -5.11610687E+00  1.88972612E-09  0.00000000E+00
 -5.11610687E+00  1.88972612E-09  0.00000000E+00 -5.11610687E+00  1.88972612E-09
  0.00000000E+00 -5.11610687E+00  1.88972612E-09  0.00000000E+00 -5.11610687E+00
  1.88972612E-09  0.00000000E+00  5.11610687E+00 -1.88972612E-09  0.00000000E+00
  5.11610687E+00 -1.88972612E-09  0.00000000E+00  5.11610687E+00 -1.88972612E-09
  0.00000000E+00  5.11610687E+00 -1.88972612E-09  0.00000000E+00  5.11610687E+00
 -1.88972612E-09  0.00000000E+00  5.11610687E+00 -1.88972612E-09
Num ILSW                                   I              100
ILSW                                       I   N=         100
           0           0           0           0           2           0
           0           0           0           0        1009          -1
           5           0           0           0           0           0
           0           0           0           0           0           0
           1           1           0           0           0           0
           0           0      100000           0          -1           0
           0           0           0           0           0           0
           0           0           0           1           0           0
           0 -2000000000           1           0           0           0
           0           0           4          52           0           0
           0           0          13           0           0           0
           0           0           0          12           0           1
           0           0           0           0           0           0
           0           0           0           0           0           0
           0           0           0           0           0           0
           0           0           0           0           0           0
           0           0           0           0
Num RLSW                                   I               52
RLSW                                       R   N=          52
  7.50000000E-01  7.50000000E-01  1.00000000E+00  1.00000000E+00  2.50000000E-01
  0.00000000E+00  0.00000000E+00  1.00000000E+00  0.00000000E+00  0.00000000E+00
  0.00000000E+00  0.00000000E+00  1.00000000E+00  0.00000000E+00  0.00000000E+00
  0.00000000E+00  0.00000000E+00  1.00000000E+00  0.00000000E+00  0.00000000E+00
  0.00000000E+00  0.00000000E+00  1.00000000E+00  0.00000000E+00  0.00000000E+00
  0.00000000E+00  0.00000000E+00  1.00000000E+00  0.00000000E+00  0.00000000E+00
  0.00000000E+00  0.00000000E+00  1.00000000E+00  0.00000000E+00  0.00000000E+00
  0.00000000E+00  0.00000000E+00  0.00000000E+00  1.00000000E+00  1.00000000E+00
  0.00000000E+00  1.00000000E+00  0.00000000E+00  0.00000000E+00  0.00000000E+00
  0.00000000E+00  0.00000000E+00  0.00000000E+00  0.00000000E+00  0.00000000E+00
  0.00000000E+00  0.00000000E+00
MxBond                                     I                3
NBond                                      I   N=          12
           3           3           3           3           3           3
           1           1           1           1           1           1
IBond                                      I   N=          36
           2           6           7           1           3           8
           2           4          11           3           5           9
           4           6          10           1           5          12
           1           0           0           2           0           0
           4           0           0           5           0           0
           3           0           0           6           0           0
RBond                                      R   N=          36
  1.50000000E+00  1.50000000E+00  1.00000000E+00  1.50000000E+00  1.50000000E+00
  1.00000000E+00  1.50000000E+00  1.50000000E+00  1.00000000E+00  1.50000000E+00
  1.50000000E+00  1.00000000E+00  1.50000000E+00  1.50000000E+00  1.00000000E+00
  1.50000000E+00  1.50000000E+00  1.00000000E+00  1.00000000E+00  0.00000000E+00
  0.00000000E+00  1.00000000E+00  0.00000000E+00  0.00000000E+00  1.00000000E+00
  0.00000000E+00  0.00000000E+00  1.00000000E+00  0.00000000E+00  0.00000000E+00
  1.00000000E+00  0.00000000E+00  0.00000000E+00  1.00000000E+00  0.00000000E+00
  0.00000000E+00
Virial Ratio                               R      2.003171931408224E+00
SCF Energy                                 R     -4.303771994886995E+02
Total Energy                               R     -4.303771994886995E+02
RMS Density                                R      1.585804724664726E-09
Job Status                                 I                1
Nuclear derivative order                   I                0
External E-field                           R   N=          35
  0.00000000E+00  0.00000000E+00  0.00000000E+00  0.00000000E+00  0.00000000E+00
  0.00000000E+00  0.00000000E+00  0.00000000E+00  0.00000000E+00  0.00000000E+00
  0.00000000E+00  0.00000000E+00  0.00000000E+00  0.00000000E+00  0.00000000E+00
  0.00000000E+00  0.00000000E+00  0.00000000E+00  0.00000000E+00  0.00000000E+00
  0.00000000E+00  0.00000000E+00  0.00000000E+00  0.00000000E+00  0.00000000E+00
  0.00000000E+00  0.00000000E+00  0.00000000E+00  0.00000000E+00  0.00000000E+00
  0.00000000E+00  0.00000000E+00  0.00000000E+00  0.00000000E+00  0.00000000E+00
IOpCl                                      I                0
IROHF                                      I                0
Alpha Orbital Energies                     R   N=         204
 -2.47889635E+01 -2.47889605E+01 -1.03230343E+01 -1.03230214E+01 -1.02532099E+01
 -1.02531875E+01 -1.02525895E+01 -1.02525876E+01 -1.27289248E+00 -1.27277613E+00
 -9.14566504E-01 -8.07054527E-01 -7.89281927E-01 -6.76117738E-01 -6.54407690E-01
 -5.86209293E-01 -5.69358660E-01 -5.48841984E-01 -5.03168575E-01 -4.93265470E-01
 -4.84824466E-01 -4.68732201E-01 -4.63774538E-01 -4.48411034E-01 -4.09771437E-01
 -3.86602315E-01 -3.76967820E-01 -2.95621058E-01 -2.66800701E-01 -3.49214306E-02
 -1.04698094E-02  3.32965184E-03  1.39641926E-02  2.27394154E-02  3.81110706E-02
  4.24347543E-02  6.59993049E-02  7.95013845E-02  8.00121845E-02  9.06293903E-02
  9.15272390E-02  1.09465838E-01  1.12645902E-01  1.23402399E-01  1.23519344E-01
  1.38767788E-01  1.42349024E-01  1.42537531E-01  1.43468501E-01  1.44031847E-01
  1.45173644E-01  1.56782675E-01  1.59766060E-01  1.69989061E-01  1.72758942E-01
  1.95478996E-01  2.08320350E-01  2.12900870E-01  2.15074115E-01  2.22439517E-01
  2.63893956E-01  2.64826473E-01  2.73796931E-01  2.79380407E-01  2.97061333E-01
  2.99314392E-01  3.13839234E-01  3.15233181E-01  3.53046781E-01  3.53923044E-01
  3.58595904E-01  3.59494725E-01  3.83277485E-01  4.07672869E-01  4.21187737E-01
  4.26268973E-01  4.26949102E-01  4.63370417E-01  5.10513268E-01  5.18468941E-01
  5.25949053E-01  5.41031869E-01  5.57949059E-01  5.70124798E-01  5.81420692E-01
  5.85666428E-01  5.94409698E-01  6.16020985E-01  6.18797294E-01  6.20074775E-01
  6.60795879E-01  6.86867137E-01  7.19802661E-01  7.63008049E-01  7.77598994E-01
  7.91132482E-01  8.02844517E-01  8.41834433E-01  8.55166312E-01  8.76882460E-01
  8.83973414E-01  8.86052433E-01  8.95258988E-01  9.44118418E-01  9.79435047E-01
  9.87796417E-01  9.89352701E-01  1.01436783E+00  1.03807293E+00  1.05657614E+00
  1.11142596E+00  1.15866561E+00  1.18510444E+00  1.27814365E+00  1.34767105E+00
  1.42371361E+00  1.44013496E+00  1.44187836E+00  1.45093370E+00  1.45295749E+00
  1.49800056E+00  1.53455698E+00  1.53687073E+00  1.55294560E+00  1.55997678E+00
  1.60654966E+00  1.60766854E+00  1.60861857E+00  1.63040015E+00  1.67541744E+00
  1.72160231E+00  1.73580777E+00  1.75839115E+00  1.89887090E+00  1.90380091E+00
  1.90599677E+00  1.90902834E+00  1.92113398E+00  1.94337197E+00  1.95934119E+00
  2.04408568E+00  2.06400337E+00  2.07303365E+00  2.07565637E+00  2.08031486E+00
  2.10531655E+00  2.20605269E+00  2.27741511E+00  2.30947592E+00  2.32088194E+00
  2.41482386E+00  2.46693854E+00  2.61616310E+00  2.64289244E+00  2.64313308E+00
  2.69200088E+00  2.70017228E+00  2.71322230E+00  2.75662987E+00  2.75861563E+00
  2.75895761E+00  2.77029540E+00  2.80247719E+00  2.86524222E+00  2.89913987E+00
  2.96725628E+00  3.08803307E+00  3.11788947E+00  3.15555411E+00  3.23455910E+00
  3.35882034E+00  3.39784611E+00  3.49755616E+00  3.61827890E+00  3.66851831E+00
  3.78076555E+00  3.79548477E+00  3.79975047E+00  3.85014516E+00  3.89284048E+00
  3.99813003E+00  4.00615087E+00  4.00913450E+00  4.11549879E+00  4.16070261E+00
  4.16820197E+00  4.18968775E+00  4.86367920E+00  4.88190639E+00  4.90867526E+00
  6.34707271E+00  6.37773097E+00  6.47774552E+00  6.50463858E+00  6.74351765E+00
  6.85298561E+00  2.36294649E+01  2.39698691E+01  2.40730337E+01  2.41572639E+01
  2.41973620E+01  2.42886119E+01  6.69418984E+01  6.69657104E+01
Alpha MO coefficients                      R   N=       41616
  4.19873381E-06 -1.86219406E-05 -2.88893205E-05 -6.27800128E-05  2.91424402E-13
  2.79803075E-04  1.32972965E-04  3.12154431E-04 -1.05493528E-12 -9.86373123E-03
  4.67255953E-03  4.57339478E-03  9.22947400E-12 -6.25415732E-02  1.63478416E-02
  3.99867174E-03  5.71566533E-12  4.54692165E-05 -6.55995012E-13 -1.30973885E-12
  2.37573983E-05 -7.85292565E-05 -4.19873358E-06  1.86219396E-05  2.88893207E-05
 -6.27800130E-05  2.91216024E-13 -2.79803069E-04 -1.32972967E-04  3.12154433E-04
 -1.05452176E-12  9.86373122E-03 -4.67255947E-03  4.57339473E-03  9.22509670E-12
  6.25415728E-02 -1.63478414E-02  3.99867173E-03  5.77629740E-12 -4.54692159E-05
 -6.55707830E-13  1.30892163E-12 -2.37574010E-05 -7.85292536E-05  2.08863765E-05
 -8.81396122E-05  2.34664896E-15 -9.36658405E-05  9.39287717E-13  6.43101931E-04
 -8.02740783E-15 -8.92544841E-05 -3.24858592E-12 -6.40587806E-03 -5.93627550E-14
 -8.44873829E-03  1.39851162E-11 -7.95993187E-02  3.14000261E-12 -1.15257827E-02
  4.76037232E-11 -7.62698896E-05 -6.98550570E-15  1.25691324E-12 -1.23776318E-05
  2.04024271E-15 -4.19873358E-06  1.86219396E-05 -2.88893207E-05 -6.27800130E-05
  2.88149979E-13 -2.79803069E-04  1.32972967E-04  3.12154433E-04 -1.08561467E-12
  9.86373122E-03  4.67255947E-03  4.57339473E-03  8.76305177E-12  6.25415728E-02
  1.63478414E-02  3.99867173E-03  3.09857873E-12 -4.54692159E-05  8.21853029E-13
  1.42508860E-12 -2.37574010E-05  7.85292536E-05  4.19873381E-06 -1.86219406E-05
  2.88893204E-05 -6.27800128E-05  2.87825967E-13  2.79803075E-04 -1.32972965E-04
  3.12154431E-04 -1.08534660E-12 -9.86373123E-03 -4.67255953E-03  4.57339478E-03
  8.76626267E-12 -6.25415732E-02 -1.63478416E-02  3.99867175E-03  3.04147031E-12
  4.54692165E-05  8.22125696E-13 -1.42516379E-12  2.37573983E-05  7.85292565E-05
 -2.08863772E-05  8.81396152E-05  6.20752366E-16 -9.36658445E-05  9.39562126E-13
 -6.43101948E-04  1.67141071E-15 -8.92544925E-05 -3.24878262E-12  6.40587809E-03
 -1.30298223E-14 -8.44873847E-03  1.39827561E-11  7.95993199E-02  1.62981949E-12
 -1.15257829E-02  4.76703860E-11  7.62698958E-05 -6.70776741E-15 -1.25673210E-12
  1.23776326E-05 -2.67751113E-15  6.80615114E-05 -8.32435448E-04 -1.83931391E-03
 -3.28423194E-03  4.75975432E-05  7.37729820E-06 -8.40562208E-13 -6.80615087E-05
  8.32435427E-04  1.83931387E-03  3.28423188E-03 -4.75975434E-05  7.37729760E-06
 -8.40812582E-13 -6.80615087E-05  8.32435427E-04  1.83931387E-03  3.28423188E-03
  4.75975434E-05  7.37729760E-06 -1.31098106E-12  6.80615113E-05 -8.32435448E-04