 Entering Gaussian System, Link 0=g16
 Initial command:
 /sw/cluster/pub/apps//g16/l1.exe "/data/natrosa/27982/Gau-766864.inp" -scrdir="/data/natrosa/27982/"
 Entering Link 1 = /sw/cluster/pub/apps//g16/l1.exe PID=    766865.
  
 Copyright (c) 1988,1990,1992,1993,1995,1998,2003,2009,2016,
            Gaussian, Inc.  All Rights Reserved.
  
 This is part of the Gaussian(R) 16 program.  It is based on
 the Gaussian(R) 09 system (copyright 2009, Gaussian, Inc.),
 the Gaussian(R) 03 system (copyright 2003, Gaussian, Inc.),
 the Gaussian(R) 98 system (copyright 1998, Gaussian, Inc.),
 the Gaussian(R) 94 system (copyright 1995, Gaussian, Inc.),
 the Gaussian 92(TM) system (copyright 1992, Gaussian, Inc.),
 the Gaussian 90(TM) system (copyright 1990, Gaussian, Inc.),
 the Gaussian 88(TM) system (copyright 1988, Gaussian, Inc.),
 the Gaussian 86(TM) system (copyright 1986, Carnegie Mellon
 University), and the Gaussian 82(TM) system (copyright 1983,
 Carnegie Mellon University). Gaussian is a federally registered
 trademark of Gaussian, Inc.
  
 This software contains proprietary and confidential information,
 including trade secrets, belonging to Gaussian, Inc.
  
 This software is provided under written license and may be
 used, copied, transmitted, or stored only in accord with that
 written license.
  
 The following legend is applicable only to US Government
 contracts under FAR:
  
                    RESTRICTED RIGHTS LEGEND
  
 Use, reproduction and disclosure by the US Government is
 subject to restrictions as set forth in subparagraphs (a)
 and (c) of the Commercial Computer Software - Restricted
 Rights clause in FAR 52.227-19.
  
 Gaussian, Inc.
 340 Quinnipiac St., Bldg. 40, Wallingford CT 06492
  
  
 ---------------------------------------------------------------
 Warning -- This program may not be used in any manner that
 competes with the business of Gaussian, Inc. or will provide
 assistance to any competitor of Gaussian, Inc.  The licensee
 of this program is prohibited from giving any competitor of
 Gaussian, Inc. access to this program.  By using this program,
 the user acknowledges that Gaussian, Inc. is engaged in the
 business of creating and licensing software in the field of
 computational chemistry and represents and warrants to the
 licensee that it is not a competitor of Gaussian, Inc. and that
 it will not use this program in any manner prohibited above.
 ---------------------------------------------------------------
  

 Cite this work as:
 Gaussian 16, Revision A.03,
 M. J. Frisch, G. W. Trucks, H. B. Schlegel, G. E. Scuseria, 
 M. A. Robb, J. R. Cheeseman, G. Scalmani, V. Barone, 
 G. A. Petersson, H. Nakatsuji, X. Li, M. Caricato, A. V. Marenich, 
 J. Bloino, B. G. Janesko, R. Gomperts, B. Mennucci, H. P. Hratchian, 
 J. V. Ortiz, A. F. Izmaylov, J. L. Sonnenberg, D. Williams-Young, 
 F. Ding, F. Lipparini, F. Egidi, J. Goings, B. Peng, A. Petrone, 
 T. Henderson, D. Ranasinghe, V. G. Zakrzewski, J. Gao, N. Rega, 
 G. Zheng, W. Liang, M. Hada, M. Ehara, K. Toyota, R. Fukuda, 
 J. Hasegawa, M. Ishida, T. Nakajima, Y. Honda, O. Kitao, H. Nakai, 
 T. Vreven, K. Throssell, J. A. Montgomery, Jr., J. E. Peralta, 
 F. Ogliaro, M. J. Bearpark, J. J. Heyd, E. N. Brothers, K. N. Kudin, 
 V. N. Staroverov, T. A. Keith, R. Kobayashi, J. Normand, 
 K. Raghavachari, A. P. Rendell, J. C. Burant, S. S. Iyengar, 
 J. Tomasi, M. Cossi, J. M. Millam, M. Klene, C. Adamo, R. Cammi, 
 J. W. Ochterski, R. L. Martin, K. Morokuma, O. Farkas, 
 J. B. Foresman, and D. J. Fox, Gaussian, Inc., Wallingford CT, 2016.
 
 ******************************************
 Gaussian 16:  ES64L-G16RevA.03 25-Dec-2016
                17-Jan-2025 
 ******************************************
 %chk=1-4-DFB.chk
 -----------------------------------------------
 #p PBE1PBE/6-311++G(d,p) density=current nosymm
 -----------------------------------------------
 1/30=1,38=1,172=1/1;
 2/12=2,15=1,17=6,18=5,40=1/2;
 3/5=4,6=6,7=1111,11=2,25=1,30=1,74=-13/1,2,3;
 4//1;
 5/5=2,38=5/2;
 6/7=2,8=2,9=2,10=2,22=-1,28=1/1;
 99/5=1,9=1/99;
 Leave Link    1 at Fri Jan 17 12:48:14 2025, MaxMem=           0 cpu:               0.0 elap:               0.0
 (Enter /sw/cluster/pub/apps//g16/l101.exe)
 ----------
 1 4-DFB SP
 ----------
 Symbolic Z-matrix:
 Charge =  0 Multiplicity = 1
 C                     1.21122   0.69497   0. 
 C                     1.21122  -0.69497  0. 
 C                     0.       -1.36351   0. 
 C                    -1.21122  -0.69497  0. 
 C                    -1.21122   0.69497   0. 
 C                     0.        1.36351   0. 
 H                     2.13708   1.25795   0. 
 H                     2.13708  -1.25795  0. 
 H                    -2.13708  -1.25795   0. 
 H                    -2.13708   1.25795   0. 
 F                     0.       -2.70733   0. 
 F                     0.        2.70733  0. 
 
 ITRead=  0  0  0  0  0  0  0  0  0  0  0  0
 MicOpt= -1 -1 -1 -1 -1 -1 -1 -1 -1 -1 -1 -1
 NAtoms=     12 NQM=       12 NQMF=       0 NMMI=      0 NMMIF=      0
                NMic=       0 NMicF=      0.
                    Isotopes and Nuclear Properties:
 (Nuclear quadrupole moments (NQMom) in fm**2, nuclear magnetic moments (NMagM)
  in nuclear magnetons)

  Atom         1           2           3           4           5           6           7           8           9          10
 IAtWgt=          12          12          12          12          12          12           1           1           1           1
 AtmWgt=  12.0000000  12.0000000  12.0000000  12.0000000  12.0000000  12.0000000   1.0078250   1.0078250   1.0078250   1.0078250
 NucSpn=           0           0           0           0           0           0           1           1           1           1
 AtZEff=  -0.0000000  -0.0000000  -0.0000000  -0.0000000  -0.0000000  -0.0000000  -0.0000000  -0.0000000  -0.0000000  -0.0000000
 NQMom=    0.0000000   0.0000000   0.0000000   0.0000000   0.0000000   0.0000000   0.0000000   0.0000000   0.0000000   0.0000000
 NMagM=    0.0000000   0.0000000   0.0000000   0.0000000   0.0000000   0.0000000   2.7928460   2.7928460   2.7928460   2.7928460
 AtZNuc=   6.0000000   6.0000000   6.0000000   6.0000000   6.0000000   6.0000000   1.0000000   1.0000000   1.0000000   1.0000000

  Atom        11          12
 IAtWgt=          19          19
 AtmWgt=  18.9984032  18.9984032
 NucSpn=           1           1
 AtZEff=  -0.0000000  -0.0000000
 NQMom=    0.0000000   0.0000000
 NMagM=    2.6288670   2.6288670
 AtZNuc=   9.0000000   9.0000000
 Leave Link  101 at Fri Jan 17 12:48:14 2025, MaxMem=   104857600 cpu:               0.0 elap:               0.0
 (Enter /sw/cluster/pub/apps//g16/l202.exe)
                          Input orientation:                          
 ---------------------------------------------------------------------
 Center     Atomic      Atomic             Coordinates (Angstroms)
 Number     Number       Type             X           Y           Z
 ---------------------------------------------------------------------
      1          6           0        1.211215    0.694971    0.000000
      2          6           0        1.211215   -0.694971   -0.000000
      3          6           0        0.000000   -1.363514    0.000000
      4          6           0       -1.211215   -0.694971   -0.000000
      5          6           0       -1.211215    0.694971    0.000000
      6          6           0        0.000000    1.363514    0.000000
      7          1           0        2.137078    1.257947    0.000000
      8          1           0        2.137078   -1.257947   -0.000000
      9          1           0       -2.137078   -1.257947    0.000000
     10          1           0       -2.137078    1.257947    0.000000
     11          9           0        0.000000   -2.707327    0.000000
     12          9           0        0.000000    2.707327   -0.000000
 ---------------------------------------------------------------------
                    Distance matrix (angstroms):
                    1          2          3          4          5
     1  C    0.000000
     2  C    1.389942   0.000000
     3  C    2.388390   1.383471   0.000000
     4  C    2.792868   2.422431   1.383471   0.000000
     5  C    2.422431   2.792868   2.388390   1.389942   0.000000
     6  C    1.383471   2.388390   2.727028   2.388390   1.383471
     7  H    1.083588   2.161275   3.382183   3.876204   3.395292
     8  H    2.161275   1.083588   2.139684   3.395292   3.876204
     9  H    3.876204   3.395292   2.139684   1.083588   2.161275
    10  H    3.395292   3.876204   3.382183   2.161275   1.083588
    11  F    3.611465   2.348748   1.343813   2.348748   3.611465
    12  F    2.348748   3.611465   4.070841   3.611465   2.348748
                    6          7          8          9         10
     6  C    0.000000
     7  H    2.139684   0.000000
     8  H    3.382183   2.515894   0.000000
     9  H    3.382183   4.959650   4.274156   0.000000
    10  H    2.139684   4.274156   4.959650   2.515894   0.000000
    11  F    4.070841   4.504498   2.582209   2.582209   4.504498
    12  F    1.343813   2.582209   4.504498   4.504498   2.582209
                   11         12
    11  F    0.000000
    12  F    5.414654   0.000000
 Symmetry turned off by external request.
 Stoichiometry    C6H4F2
 Framework group  D2H[C2"(FC.CF),SG(C4H4)]
 Deg. of freedom     6
 Full point group                 D2H     NOp   8
 Rotational constants (GHZ):           5.6893211           1.4329481           1.1446495
 Leave Link  202 at Fri Jan 17 12:48:14 2025, MaxMem=   104857600 cpu:               0.0 elap:               0.0
 (Enter /sw/cluster/pub/apps//g16/l301.exe)
 Standard basis: 6-311++G(d,p) (5D, 7F)
 Ernie: Thresh=  0.10000D-02 Tol=  0.10000D-05 Strict=F.
   204 basis functions,   324 primitive gaussians,   212 cartesian basis functions
    29 alpha electrons       29 beta electrons
       nuclear repulsion energy       342.3452495129 Hartrees.
 IExCor= 1009 DFT=T Ex+Corr=PBE1PBE ExCW=0 ScaHFX=  0.250000
 ScaDFX=  0.750000  0.750000  1.000000  1.000000 ScalE2=  1.000000  1.000000
 IRadAn=      5 IRanWt=     -1 IRanGd=            0 ICorTp=0 IEmpDi=  4
 NAtoms=   12 NActive=   12 NUniq=   12 SFac= 1.00D+00 NAtFMM=   60 NAOKFM=F Big=F
 Integral buffers will be    131072 words long.
 Raffenetti 2 integral format.
 Two-electron integral symmetry is turned off.
 Leave Link  301 at Fri Jan 17 12:48:14 2025, MaxMem=   104857600 cpu:               0.0 elap:               0.0
 (Enter /sw/cluster/pub/apps//g16/l302.exe)
 NPDir=0 NMtPBC=     1 NCelOv=     1 NCel=       1 NClECP=     1 NCelD=      1
         NCelK=      1 NCelE2=     1 NClLst=     1 CellRange=     0.0.
 One-electron integrals computed using PRISM.
 NBasis=   204 RedAO= T EigKep=  2.22D-06  NBF=   204
 NBsUse=   204 1.00D-06 EigRej= -1.00D+00 NBFU=   204
 Precomputing XC quadrature grid using
 IXCGrd= 4 IRadAn=           5 IRanWt=          -1 IRanGd=           0 AccXCQ= 0.00D+00.
 Generated NRdTot=       0 NPtTot=           0 NUsed=           0 NTot=          32
 NSgBfM=   212   212   212   212   212 MxSgAt=    12 MxSgA2=    12.
 Leave Link  302 at Fri Jan 17 12:48:14 2025, MaxMem=   104857600 cpu:               0.1 elap:               0.1
 (Enter /sw/cluster/pub/apps//g16/l303.exe)
 DipDrv:  MaxL=1.
 Leave Link  303 at Fri Jan 17 12:48:14 2025, MaxMem=   104857600 cpu:               0.0 elap:               0.0
 (Enter /sw/cluster/pub/apps//g16/l401.exe)
 ExpMin= 3.60D-02 ExpMax= 1.14D+04 ExpMxC= 1.72D+03 IAcc=3 IRadAn=         5 AccDes= 0.00D+00
 Harris functional with IExCor= 1009 and IRadAn=       5 diagonalized for initial guess.
 HarFok:  IExCor= 1009 AccDes= 0.00D+00 IRadAn=         5 IDoV= 1 UseB2=F ITyADJ=14
 ICtDFT=  3500011 ScaDFX=  1.000000  1.000000  1.000000  1.000000
 FoFCou: FMM=F IPFlag=           0 FMFlag=      100000 FMFlg1=           0
         NFxFlg=           0 DoJE=T BraDBF=F KetDBF=T FulRan=T
         wScrn=  0.000000 ICntrl=       500 IOpCl=  0 I1Cent=   200000004 NGrid=           0
         NMat0=    1 NMatS0=      1 NMatT0=    0 NMatD0=    1 NMtDS0=    0 NMtDT0=    0
 Symmetry not used in FoFCou.
 Harris En= -430.443188564635    
 JPrj=0 DoOrth=F DoCkMO=F.
 Leave Link  401 at Fri Jan 17 12:48:15 2025, MaxMem=   104857600 cpu:               1.2 elap:               1.2
 (Enter /sw/cluster/pub/apps//g16/l502.exe)
 Two-electron integral symmetry not used.
 Closed shell SCF:
 Using DIIS extrapolation, IDIIS=  1040.
 NGot=   104857600 LenX=   104764860 LenY=   104719475
 Requested convergence on RMS density matrix=1.00D-08 within 128 cycles.
 Requested convergence on MAX density matrix=1.00D-06.
 Requested convergence on             energy=1.00D-06.
 No special actions if energy rises.
 Fock matrices will be formed incrementally for  20 cycles.

 Cycle   1  Pass 1  IDiag  1:
 FoFJK:  IHMeth= 1 ICntrl=       0 DoSepK=F KAlg= 0 I1Cent=           0 FoldK=F
 IRaf= 970000000 NMat=       1 IRICut=       1 DoRegI=T DoRafI=F ISym2E= 0 IDoP0=0 IntGTp=1.
 FoFCou: FMM=F IPFlag=           0 FMFlag=      100000 FMFlg1=           0
         NFxFlg=           0 DoJE=F BraDBF=F KetDBF=F FulRan=T
         wScrn=  0.000000 ICntrl=         0 IOpCl=  0 I1Cent=           0 NGrid=           0
         NMat0=    1 NMatS0=      1 NMatT0=    0 NMatD0=    1 NMtDS0=    0 NMtDT0=    0
 Symmetry not used in FoFCou.
 E= -430.245013841274    
 DIIS: error= 3.96D-02 at cycle   1 NSaved=   1.
 NSaved= 1 IEnMin= 1 EnMin= -430.245013841274     IErMin= 1 ErrMin= 3.96D-02
 ErrMax= 3.96D-02  0.00D+00 EMaxC= 1.00D-01 BMatC= 1.56D-01 BMatP= 1.56D-01
 IDIUse=3 WtCom= 6.04D-01 WtEn= 3.96D-01
 Coeff-Com:  0.100D+01
 Coeff-En:   0.100D+01
 Coeff:      0.100D+01
 Gap=     0.279 Goal=   None    Shift=    0.000
 GapD=    0.279 DampG=1.000 DampE=0.500 DampFc=0.5000 IDamp=-1.
 Damping current iteration by 5.00D-01
 RMSDP=8.37D-03 MaxDP=3.43D-01              OVMax= 1.57D-01

 Cycle   2  Pass 1  IDiag  1:
 RMSU=  2.72D-03    CP:  9.32D-01
 E= -430.306691044767     Delta-E=       -0.061677203493 Rises=F Damp=T
 DIIS: error= 7.09D-03 at cycle   2 NSaved=   2.
 NSaved= 2 IEnMin= 2 EnMin= -430.306691044767     IErMin= 2 ErrMin= 7.09D-03
 ErrMax= 7.09D-03  0.00D+00 EMaxC= 1.00D-01 BMatC= 1.16D-02 BMatP= 1.56D-01
 IDIUse=3 WtCom= 9.29D-01 WtEn= 7.09D-02
 Coeff-Com: -0.277D-01 0.103D+01
 Coeff-En:   0.280D-01 0.972D+00
 Coeff:     -0.237D-01 0.102D+01
 Gap=     0.305 Goal=   None    Shift=    0.000
 RMSDP=4.68D-03 MaxDP=1.81D-01 DE=-6.17D-02 OVMax= 9.70D-02

 Cycle   3  Pass 1  IDiag  1:
 RMSU=  2.48D-03    CP:  8.60D-01  1.77D+00
 E= -430.372373966113     Delta-E=       -0.065682921345 Rises=F Damp=F
 DIIS: error= 7.87D-03 at cycle   3 NSaved=   3.
 NSaved= 3 IEnMin= 3 EnMin= -430.372373966113     IErMin= 2 ErrMin= 7.09D-03
 ErrMax= 7.87D-03  0.00D+00 EMaxC= 1.00D-01 BMatC= 6.12D-03 BMatP= 1.16D-02
 IDIUse=3 WtCom= 9.21D-01 WtEn= 7.87D-02
 Coeff-Com: -0.748D-01 0.442D+00 0.633D+00
 Coeff-En:   0.000D+00 0.000D+00 0.100D+01
 Coeff:     -0.689D-01 0.407D+00 0.661D+00
 Gap=     0.235 Goal=   None    Shift=    0.000
 RMSDP=1.25D-03 MaxDP=5.23D-02 DE=-6.57D-02 OVMax= 2.63D-02

 Cycle   4  Pass 1  IDiag  1:
 RMSU=  7.95D-04    CP:  8.42D-01  1.79D+00  8.31D-01
 E= -430.376343486081     Delta-E=       -0.003969519968 Rises=F Damp=F
 DIIS: error= 3.78D-03 at cycle   4 NSaved=   4.
 NSaved= 4 IEnMin= 4 EnMin= -430.376343486081     IErMin= 4 ErrMin= 3.78D-03
 ErrMax= 3.78D-03  0.00D+00 EMaxC= 1.00D-01 BMatC= 1.43D-03 BMatP= 6.12D-03
 IDIUse=3 WtCom= 9.62D-01 WtEn= 3.78D-02
 Coeff-Com: -0.379D-01 0.118D+00 0.368D+00 0.552D+00
 Coeff-En:   0.000D+00 0.000D+00 0.118D+00 0.882D+00
 Coeff:     -0.365D-01 0.114D+00 0.358D+00 0.565D+00
 Gap=     0.232 Goal=   None    Shift=    0.000
 RMSDP=3.48D-04 MaxDP=1.15D-02 DE=-3.97D-03 OVMax= 6.37D-03

 Cycle   5  Pass 1  IDiag  1:
 RMSU=  1.45D-04    CP:  8.45D-01  1.80D+00  8.68D-01  6.68D-01
 E= -430.377177159676     Delta-E=       -0.000833673595 Rises=F Damp=F
 DIIS: error= 6.31D-04 at cycle   5 NSaved=   5.
 NSaved= 5 IEnMin= 5 EnMin= -430.377177159676     IErMin= 5 ErrMin= 6.31D-04
 ErrMax= 6.31D-04  0.00D+00 EMaxC= 1.00D-01 BMatC= 3.37D-05 BMatP= 1.43D-03
 IDIUse=3 WtCom= 9.94D-01 WtEn= 6.31D-03
 Coeff-Com: -0.102D-01 0.244D-01 0.109D+00 0.231D+00 0.646D+00
 Coeff-En:   0.000D+00 0.000D+00 0.000D+00 0.000D+00 0.100D+01
 Coeff:     -0.102D-01 0.242D-01 0.109D+00 0.229D+00 0.648D+00
 Gap=     0.232 Goal=   None    Shift=    0.000
 RMSDP=1.40D-04 MaxDP=5.93D-03 DE=-8.34D-04 OVMax= 1.42D-03

 Cycle   6  Pass 1  IDiag  1:
 RMSU=  6.61D-05    CP:  8.43D-01  1.79D+00  8.56D-01  7.34D-01  9.01D-01
 E= -430.377195513764     Delta-E=       -0.000018354088 Rises=F Damp=F
 DIIS: error= 2.18D-04 at cycle   6 NSaved=   6.
 NSaved= 6 IEnMin= 6 EnMin= -430.377195513764     IErMin= 6 ErrMin= 2.18D-04
 ErrMax= 2.18D-04  0.00D+00 EMaxC= 1.00D-01 BMatC= 4.74D-06 BMatP= 3.37D-05
 IDIUse=3 WtCom= 9.98D-01 WtEn= 2.18D-03
 Coeff-Com: -0.319D-02 0.567D-02 0.353D-01 0.851D-01 0.354D+00 0.523D+00
 Coeff-En:   0.000D+00 0.000D+00 0.000D+00 0.000D+00 0.916D-01 0.908D+00
 Coeff:     -0.318D-02 0.566D-02 0.352D-01 0.849D-01 0.353D+00 0.524D+00
 Gap=     0.232 Goal=   None    Shift=    0.000
 RMSDP=2.64D-05 MaxDP=7.80D-04 DE=-1.84D-05 OVMax= 4.87D-04

 Cycle   7  Pass 1  IDiag  1:
 RMSU=  7.23D-06    CP:  8.43D-01  1.79D+00  8.61D-01  7.24D-01  8.79D-01
                    CP:  7.89D-01
 E= -430.377199465474     Delta-E=       -0.000003951710 Rises=F Damp=F
 DIIS: error= 1.31D-05 at cycle   7 NSaved=   7.
 NSaved= 7 IEnMin= 7 EnMin= -430.377199465474     IErMin= 7 ErrMin= 1.31D-05
 ErrMax= 1.31D-05  0.00D+00 EMaxC= 1.00D-01 BMatC= 2.66D-08 BMatP= 4.74D-06
 IDIUse=1 WtCom= 1.00D+00 WtEn= 0.00D+00
 Coeff-Com: -0.120D-03-0.174D-03 0.262D-02 0.691D-02 0.432D-01 0.959D-01
 Coeff-Com:  0.852D+00
 Coeff:     -0.120D-03-0.174D-03 0.262D-02 0.691D-02 0.432D-01 0.959D-01
 Coeff:      0.852D+00
 Gap=     0.232 Goal=   None    Shift=    0.000
 RMSDP=4.52D-06 MaxDP=1.75D-04 DE=-3.95D-06 OVMax= 3.39D-05

 Cycle   8  Pass 1  IDiag  1:
 RMSU=  1.44D-06    CP:  8.43D-01  1.79D+00  8.62D-01  7.23D-01  8.89D-01
                    CP:  7.81D-01  9.73D-01
 E= -430.377199488039     Delta-E=       -0.000000022566 Rises=F Damp=F
 DIIS: error= 2.29D-06 at cycle   8 NSaved=   8.
 NSaved= 8 IEnMin= 8 EnMin= -430.377199488039     IErMin= 8 ErrMin= 2.29D-06
 ErrMax= 2.29D-06  0.00D+00 EMaxC= 1.00D-01 BMatC= 8.18D-10 BMatP= 2.66D-08
 IDIUse=1 WtCom= 1.00D+00 WtEn= 0.00D+00
 Coeff-Com:  0.984D-04-0.232D-03-0.771D-03-0.194D-02-0.529D-02-0.384D-02
 Coeff-Com:  0.153D+00 0.859D+00
 Coeff:      0.984D-04-0.232D-03-0.771D-03-0.194D-02-0.529D-02-0.384D-02
 Coeff:      0.153D+00 0.859D+00
 Gap=     0.232 Goal=   None    Shift=    0.000
 RMSDP=1.22D-06 MaxDP=6.19D-05 DE=-2.26D-08 OVMax= 8.08D-06

 Cycle   9  Pass 1  IDiag  1:
 RMSU=  1.94D-07    CP:  8.43D-01  1.79D+00  8.62D-01  7.23D-01  8.89D-01
                    CP:  7.88D-01  1.00D+00  9.14D-01
 E= -430.377199488691     Delta-E=       -0.000000000652 Rises=F Damp=F
 DIIS: error= 3.05D-07 at cycle   9 NSaved=   9.
 NSaved= 9 IEnMin= 9 EnMin= -430.377199488691     IErMin= 9 ErrMin= 3.05D-07
 ErrMax= 3.05D-07  0.00D+00 EMaxC= 1.00D-01 BMatC= 8.22D-12 BMatP= 8.18D-10
 IDIUse=1 WtCom= 1.00D+00 WtEn= 0.00D+00
 Coeff-Com:  0.461D-05-0.683D-05-0.399D-04-0.128D-03-0.650D-03-0.441D-03
 Coeff-Com: -0.741D-02 0.248D-01 0.984D+00
 Coeff:      0.461D-05-0.683D-05-0.399D-04-0.128D-03-0.650D-03-0.441D-03
 Coeff:     -0.741D-02 0.248D-01 0.984D+00
 Gap=     0.232 Goal=   None    Shift=    0.000
 RMSDP=1.12D-07 MaxDP=5.28D-06 DE=-6.52D-10 OVMax= 9.43D-07

 Cycle  10  Pass 1  IDiag  1:
 RMSU=  3.72D-08    CP:  8.43D-01  1.79D+00  8.62D-01  7.23D-01  8.89D-01
                    CP:  7.88D-01  1.00D+00  9.35D-01  9.64D-01
 E= -430.377199488701     Delta-E=       -0.000000000010 Rises=F Damp=F
 DIIS: error= 2.98D-08 at cycle  10 NSaved=  10.
 NSaved=10 IEnMin=10 EnMin= -430.377199488701     IErMin=10 ErrMin= 2.98D-08
 ErrMax= 2.98D-08  0.00D+00 EMaxC= 1.00D-01 BMatC= 8.45D-14 BMatP= 8.22D-12
 IDIUse=1 WtCom= 1.00D+00 WtEn= 0.00D+00
 Coeff-Com: -0.325D-06 0.105D-05 0.511D-05 0.121D-04 0.222D-05-0.290D-05
 Coeff-Com: -0.209D-02-0.853D-02 0.493D-01 0.961D+00
 Coeff:     -0.325D-06 0.105D-05 0.511D-05 0.121D-04 0.222D-05-0.290D-05
 Coeff:     -0.209D-02-0.853D-02 0.493D-01 0.961D+00
 Gap=     0.232 Goal=   None    Shift=    0.000
 RMSDP=1.08D-08 MaxDP=3.81D-07 DE=-9.89D-12 OVMax= 1.95D-07

 Cycle  11  Pass 1  IDiag  1:
 RMSU=  3.31D-09    CP:  8.43D-01  1.79D+00  8.62D-01  7.23D-01  8.89D-01
                    CP:  7.88D-01  1.00D+00  9.35D-01  9.72D-01  9.49D-01
 E= -430.377199488699     Delta-E=        0.000000000001 Rises=F Damp=F
 DIIS: error= 8.00D-09 at cycle  11 NSaved=  11.
 NSaved=11 IEnMin=10 EnMin= -430.377199488701     IErMin=11 ErrMin= 8.00D-09
 ErrMax= 8.00D-09  0.00D+00 EMaxC= 1.00D-01 BMatC= 8.07D-15 BMatP= 8.45D-14
 IDIUse=1 WtCom= 1.00D+00 WtEn= 0.00D+00
 Coeff-Com: -0.732D-07 0.181D-06 0.169D-05 0.264D-05 0.107D-04 0.990D-05
 Coeff-Com: -0.118D-03-0.136D-02-0.133D-01 0.983D-01 0.916D+00
 Coeff:     -0.732D-07 0.181D-06 0.169D-05 0.264D-05 0.107D-04 0.990D-05
 Coeff:     -0.118D-03-0.136D-02-0.133D-01 0.983D-01 0.916D+00
 Gap=     0.232 Goal=   None    Shift=    0.000
 RMSDP=1.59D-09 MaxDP=6.22D-08 DE= 1.48D-12 OVMax= 2.19D-08

 SCF Done:  E(RPBE1PBE) =  -430.377199489     A.U. after   11 cycles
            NFock= 11  Conv=0.16D-08     -V/T= 2.0032
 KE= 4.290163889300D+02 PE=-1.697066749856D+03 EE= 4.953279119247D+02
 Leave Link  502 at Fri Jan 17 12:48:43 2025, MaxMem=   104857600 cpu:              27.7 elap:              28.1
 (Enter /sw/cluster/pub/apps//g16/l601.exe)
 Copying SCF densities to generalized density rwf, IOpCl= 0 IROHF=0.

 **********************************************************************

            Population analysis using the SCF density.

 **********************************************************************

 Alpha  occ. eigenvalues --  -24.78896 -24.78896 -10.32303 -10.32302 -10.25321
 Alpha  occ. eigenvalues --  -10.25319 -10.25259 -10.25259  -1.27289  -1.27278
 Alpha  occ. eigenvalues --   -0.91457  -0.80705  -0.78928  -0.67612  -0.65441
 Alpha  occ. eigenvalues --   -0.58621  -0.56936  -0.54884  -0.50317  -0.49327
 Alpha  occ. eigenvalues --   -0.48482  -0.46873  -0.46377  -0.44841  -0.40977
 Alpha  occ. eigenvalues --   -0.38660  -0.37697  -0.29562  -0.26680
 Alpha virt. eigenvalues --   -0.03492  -0.01047   0.00333   0.01396   0.02274
 Alpha virt. eigenvalues --    0.03811   0.04243   0.06600   0.07950   0.08001
 Alpha virt. eigenvalues --    0.09063   0.09153   0.10947   0.11265   0.12340
 Alpha virt. eigenvalues --    0.12352   0.13877   0.14235   0.14254   0.14347
 Alpha virt. eigenvalues --    0.14403   0.14517   0.15678   0.15977   0.16999
 Alpha virt. eigenvalues --    0.17276   0.19548   0.20832   0.21290   0.21507
 Alpha virt. eigenvalues --    0.22244   0.26389   0.26483   0.27380   0.27938
 Alpha virt. eigenvalues --    0.29706   0.29931   0.31384   0.31523   0.35305
 Alpha virt. eigenvalues --    0.35392   0.35860   0.35949   0.38328   0.40767
 Alpha virt. eigenvalues --    0.42119   0.42627   0.42695   0.46337   0.51051
 Alpha virt. eigenvalues --    0.51847   0.52595   0.54103   0.55795   0.57012
 Alpha virt. eigenvalues --    0.58142   0.58567   0.59441   0.61602   0.61880
 Alpha virt. eigenvalues --    0.62007   0.66080   0.68687   0.71980   0.76301
 Alpha virt. eigenvalues --    0.77760   0.79113   0.80284   0.84183   0.85517
 Alpha virt. eigenvalues --    0.87688   0.88397   0.88605   0.89526   0.94412
 Alpha virt. eigenvalues --    0.97944   0.98780   0.98935   1.01437   1.03807
 Alpha virt. eigenvalues --    1.05658   1.11143   1.15867   1.18510   1.27814
 Alpha virt. eigenvalues --    1.34767   1.42371   1.44013   1.44188   1.45093
 Alpha virt. eigenvalues --    1.45296   1.49800   1.53456   1.53687   1.55295
 Alpha virt. eigenvalues --    1.55998   1.60655   1.60767   1.60862   1.63040
 Alpha virt. eigenvalues --    1.67542   1.72160   1.73581   1.75839   1.89887
 Alpha virt. eigenvalues --    1.90380   1.90600   1.90903   1.92113   1.94337
 Alpha virt. eigenvalues --    1.95934   2.04409   2.06400   2.07303   2.07566
 Alpha virt. eigenvalues --    2.08031   2.10532   2.20605   2.27742   2.30948
 Alpha virt. eigenvalues --    2.32088   2.41482   2.46694   2.61616   2.64289
 Alpha virt. eigenvalues --    2.64313   2.69200   2.70017   2.71322   2.75663
 Alpha virt. eigenvalues --    2.75862   2.75896   2.77030   2.80248   2.86524
 Alpha virt. eigenvalues --    2.89914   2.96726   3.08803   3.11789   3.15555
 Alpha virt. eigenvalues --    3.23456   3.35882   3.39785   3.49756   3.61828
 Alpha virt. eigenvalues --    3.66852   3.78077   3.79548   3.79975   3.85015
 Alpha virt. eigenvalues --    3.89284   3.99813   4.00615   4.00913   4.11550
 Alpha virt. eigenvalues --    4.16070   4.16820   4.18969   4.86368   4.88191
 Alpha virt. eigenvalues --    4.90868   6.34707   6.37773   6.47775   6.50464
 Alpha virt. eigenvalues --    6.74352   6.85299  23.62946  23.96987  24.07303
 Alpha virt. eigenvalues --   24.15726  24.19736  24.28861  66.94190  66.96571
          Condensed to atoms (all electrons):
               1          2          3          4          5          6
     1  C    8.893885  -1.524496   1.134330   0.080734  -1.378224  -1.481361
     2  C   -1.524496   8.893885  -1.481361  -1.378224   0.080734   1.134330
     3  C    1.134330  -1.481361   8.503253  -1.481361   1.134330  -1.571442
     4  C    0.080734  -1.378224  -1.481361   8.893885  -1.524496   1.134330
     5  C   -1.378224   0.080734   1.134330  -1.524496   8.893885  -1.481361
     6  C   -1.481361   1.134330  -1.571442   1.134330  -1.481361   8.503253
     7  H    0.588702  -0.107392   0.074598   0.043771  -0.094085  -0.203051
     8  H   -0.107392   0.588702  -0.203051  -0.094085   0.043771   0.074598
     9  H    0.043771  -0.094085  -0.203051   0.588702  -0.107392   0.074598
    10  H   -0.094085   0.043771   0.074598  -0.107392   0.588702  -0.203051
    11  F    0.058413  -0.357920   0.700165  -0.357920   0.058413  -0.050844
    12  F   -0.357920   0.058413  -0.050844   0.058413  -0.357920   0.700165
               7          8          9         10         11         12
     1  C    0.588702  -0.107392   0.043771  -0.094085   0.058413  -0.357920
     2  C   -0.107392   0.588702  -0.094085   0.043771  -0.357920   0.058413
     3  C    0.074598  -0.203051  -0.203051   0.074598   0.700165  -0.050844
     4  C    0.043771  -0.094085   0.588702  -0.107392  -0.357920   0.058413
     5  C   -0.094085   0.043771  -0.107392   0.588702   0.058413  -0.357920
     6  C   -0.203051   0.074598   0.074598  -0.203051  -0.050844   0.700165
     7  H    0.488097  -0.015022   0.002163  -0.002671   0.001390  -0.025147
     8  H   -0.015022   0.488097  -0.002671   0.002163  -0.025147   0.001390
     9  H    0.002163  -0.002671   0.488097  -0.015022  -0.025147   0.001390
    10  H   -0.002671   0.002163  -0.015022   0.488097   0.001390  -0.025147
    11  F    0.001390  -0.025147  -0.025147   0.001390   9.151474   0.000155
    12  F   -0.025147   0.001390   0.001390  -0.025147   0.000155   9.151474
 Mulliken charges:
               1
     1  C    0.143644
     2  C    0.143644
     3  C   -0.630164
     4  C    0.143644
     5  C    0.143644
     6  C   -0.630164
     7  H    0.248648
     8  H    0.248648
     9  H    0.248648
    10  H    0.248648
    11  F   -0.154419
    12  F   -0.154419
 Sum of Mulliken charges =  -0.00000
 Mulliken charges with hydrogens summed into heavy atoms:
               1
     1  C    0.392292
     2  C    0.392292
     3  C   -0.630164
     4  C    0.392292
     5  C    0.392292
     6  C   -0.630164
    11  F   -0.154419
    12  F   -0.154419
 Electronic spatial extent (au):  <R**2>=            906.8712
 Charge=             -0.0000 electrons
 Dipole moment (field-independent basis, Debye):
    X=              0.0000    Y=              0.0000    Z=              0.0000  Tot=              0.0000
 Quadrupole moment (field-independent basis, Debye-Ang):
   XX=            -36.6171   YY=            -52.4805   ZZ=            -46.8705
   XY=             -0.0000   XZ=             -0.0000   YZ=              0.0000
 Traceless Quadrupole moment (field-independent basis, Debye-Ang):
   XX=              8.7056   YY=             -7.1578   ZZ=             -1.5478
   XY=             -0.0000   XZ=             -0.0000   YZ=              0.0000
 Octapole moment (field-independent basis, Debye-Ang**2):
  XXX=             -0.0000  YYY=              0.0000  ZZZ=              0.0000  XYY=              0.0000
  XXY=              0.0000  XXZ=             -0.0000  XZZ=             -0.0000  YZZ=              0.0000
  YYZ=              0.0000  XYZ=              0.0000
 Hexadecapole moment (field-independent basis, Debye-Ang**3):
 XXXX=           -255.4622 YYYY=           -780.4271 ZZZZ=            -49.0594 XXXY=             -0.0000
 XXXZ=             -0.0000 YYYX=             -0.0000 YYYZ=              0.0000 ZZZX=             -0.0000
 ZZZY=              0.0000 XXYY=           -146.2881 XXZZ=            -64.1333 YYZZ=           -122.8664
 XXYZ=              0.0000 YYXZ=             -0.0000 ZZXY=             -0.0000
 N-N= 3.423452495129D+02 E-N=-1.697066749516D+03  KE= 4.290163889300D+02
 No NMR shielding tensors so no spin-rotation constants.
 Leave Link  601 at Fri Jan 17 12:48:44 2025, MaxMem=   104857600 cpu:               0.0 elap:               0.1
 (Enter /sw/cluster/pub/apps//g16/l9999.exe)
 1\1\GINC-N12\SP\RPBE1PBE\6-311++G(d,p)\C6H4F2\UNKNOWN\17-Jan-2025\0\\#
 p PBE1PBE/6-311++G(d,p) density=current nosymm\\1 4-DFB SP\\0,1\C,0,1.
 211215374,0.694971196,0.000000001\C,0,1.211215374,-0.694971196,-0.0000
 00001\C,0,0.,-1.363514206,0.\C,0,-1.211215374,-0.694971196,-0.00000000
 1\C,0,-1.211215374,0.694971196,0.000000001\C,0,0.,1.363514206,0.\H,0,2
 .137077759,1.257946906,0.000000001\H,0,2.137077759,-1.257946906,-0.000
 000001\H,0,-2.137077759,-1.257946906,0.\H,0,-2.137077759,1.257946906,0
 .\F,0,0.,-2.707327163,0.000000001\F,0,0.,2.707327163,-0.000000001\\Ver
 sion=ES64L-G16RevA.03\HF=-430.3771995\RMSD=1.586e-09\Dipole=0.,0.,0.\Q
 uadrupole=6.4724226,-5.3216586,-1.150764,0.,0.,0.\PG=D02H [C2"(F1C1.C1
 F1),SG(C4H4)]\\@


 THE PROBLEM WITH THE LADDER OF SUCCESS IS YOU CAN'T
 CLIMB IT WHILE YOU'RE TWIDDLING YOUR THUMBS.
 Job cpu time:       0 days  0 hours  0 minutes 29.2 seconds.
 Elapsed time:       0 days  0 hours  0 minutes 29.6 seconds.
 File lengths (MBytes):  RWF=     27 Int=      0 D2E=      0 Chk=      4 Scr=      1
 Normal termination of Gaussian 16 at Fri Jan 17 12:48:44 2025.
