 Entering Gaussian System, Link 0=g16
 Initial command:
 /sw/cluster/pub/apps//g16/l1.exe "/data/natrosa/28461/Gau-2965.inp" -scrdir="/data/natrosa/28461/"
 Entering Link 1 = /sw/cluster/pub/apps//g16/l1.exe PID=      2966.
  
 Copyright (c) 1988,1990,1992,1993,1995,1998,2003,2009,2016,
            Gaussian, Inc.  All Rights Reserved.
  
 This is part of the Gaussian(R) 16 program.  It is based on
 the Gaussian(R) 09 system (copyright 2009, Gaussian, Inc.),
 the Gaussian(R) 03 system (copyright 2003, Gaussian, Inc.),
 the Gaussian(R) 98 system (copyright 1998, Gaussian, Inc.),
 the Gaussian(R) 94 system (copyright 1995, Gaussian, Inc.),
 the Gaussian 92(TM) system (copyright 1992, Gaussian, Inc.),
 the Gaussian 90(TM) system (copyright 1990, Gaussian, Inc.),
 the Gaussian 88(TM) system (copyright 1988, Gaussian, Inc.),
 the Gaussian 86(TM) system (copyright 1986, Carnegie Mellon
 University), and the Gaussian 82(TM) system (copyright 1983,
 Carnegie Mellon University). Gaussian is a federally registered
 trademark of Gaussian, Inc.
  
 This software contains proprietary and confidential information,
 including trade secrets, belonging to Gaussian, Inc.
  
 This software is provided under written license and may be
 used, copied, transmitted, or stored only in accord with that
 written license.
  
 The following legend is applicable only to US Government
 contracts under FAR:
  
                    RESTRICTED RIGHTS LEGEND
  
 Use, reproduction and disclosure by the US Government is
 subject to restrictions as set forth in subparagraphs (a)
 and (c) of the Commercial Computer Software - Restricted
 Rights clause in FAR 52.227-19.
  
 Gaussian, Inc.
 340 Quinnipiac St., Bldg. 40, Wallingford CT 06492
  
  
 ---------------------------------------------------------------
 Warning -- This program may not be used in any manner that
 competes with the business of Gaussian, Inc. or will provide
 assistance to any competitor of Gaussian, Inc.  The licensee
 of this program is prohibited from giving any competitor of
 Gaussian, Inc. access to this program.  By using this program,
 the user acknowledges that Gaussian, Inc. is engaged in the
 business of creating and licensing software in the field of
 computational chemistry and represents and warrants to the
 licensee that it is not a competitor of Gaussian, Inc. and that
 it will not use this program in any manner prohibited above.
 ---------------------------------------------------------------
  

 Cite this work as:
 Gaussian 16, Revision A.03,
 M. J. Frisch, G. W. Trucks, H. B. Schlegel, G. E. Scuseria, 
 M. A. Robb, J. R. Cheeseman, G. Scalmani, V. Barone, 
 G. A. Petersson, H. Nakatsuji, X. Li, M. Caricato, A. V. Marenich, 
 J. Bloino, B. G. Janesko, R. Gomperts, B. Mennucci, H. P. Hratchian, 
 J. V. Ortiz, A. F. Izmaylov, J. L. Sonnenberg, D. Williams-Young, 
 F. Ding, F. Lipparini, F. Egidi, J. Goings, B. Peng, A. Petrone, 
 T. Henderson, D. Ranasinghe, V. G. Zakrzewski, J. Gao, N. Rega, 
 G. Zheng, W. Liang, M. Hada, M. Ehara, K. Toyota, R. Fukuda, 
 J. Hasegawa, M. Ishida, T. Nakajima, Y. Honda, O. Kitao, H. Nakai, 
 T. Vreven, K. Throssell, J. A. Montgomery, Jr., J. E. Peralta, 
 F. Ogliaro, M. J. Bearpark, J. J. Heyd, E. N. Brothers, K. N. Kudin, 
 V. N. Staroverov, T. A. Keith, R. Kobayashi, J. Normand, 
 K. Raghavachari, A. P. Rendell, J. C. Burant, S. S. Iyengar, 
 J. Tomasi, M. Cossi, J. M. Millam, M. Klene, C. Adamo, R. Cammi, 
 J. W. Ochterski, R. L. Martin, K. Morokuma, O. Farkas, 
 J. B. Foresman, and D. J. Fox, Gaussian, Inc., Wallingford CT, 2016.
 
 ******************************************
 Gaussian 16:  ES64L-G16RevA.03 25-Dec-2016
                29-Jan-2025 
 ******************************************
 %chk=1-4-DFB-CAT.chk
 --------------------------------------------------------
 #p opt freq PBE1PBE/6-311++G(d,p) density=current nosymm
 --------------------------------------------------------
 1/18=20,19=15,26=3,38=1/1,3;
 2/9=110,12=2,15=1,17=6,18=5,40=1/2;
 3/5=4,6=6,7=1111,11=2,25=1,30=1,71=1,74=-13/1,2,3;
 4//1;
 5/5=2,38=5/2;
 6/7=2,8=2,9=2,10=2,22=-1,28=1/1;
 7/30=1/1,2,3,16;
 1/18=20,19=15,26=3/3(2);
 2/9=110,15=1/2;
 99//99;
 2/9=110,15=1/2;
 3/5=4,6=6,7=1111,11=2,25=1,30=1,71=1,74=-13/1,2,3;
 4/5=5,16=3,69=1/1;
 5/5=2,38=5/2;
 7/30=1/1,2,3,16;
 1/18=20,19=15,26=3/3(-5);
 2/9=110,15=1/2;
 6/7=2,8=2,9=2,10=2,19=2,22=-1,28=1/1;
 99/9=1/99;
 Leave Link    1 at Wed Jan 29 15:45:20 2025, MaxMem=           0 cpu:               0.0 elap:               0.0
 (Enter /sw/cluster/pub/apps//g16/l101.exe)
 ----------
 1 4-DFB SP
 ----------
 Symbolic Z-matrix:
 Charge =  1 Multiplicity = 2
 C                     1.21122   0.69497   0. 
 C                     1.21122  -0.69497  0. 
 C                     0.       -1.36351   0. 
 C                    -1.21122  -0.69497  0. 
 C                    -1.21122   0.69497   0. 
 C                     0.        1.36351   0. 
 H                     2.13708   1.25795   0. 
 H                     2.13708  -1.25795  0. 
 H                    -2.13708  -1.25795   0. 
 H                    -2.13708   1.25795   0. 
 F                     0.       -2.70733   0. 
 F                     0.        2.70733  0. 
 
 ITRead=  0  0  0  0  0  0  0  0  0  0  0  0
 MicOpt= -1 -1 -1 -1 -1 -1 -1 -1 -1 -1 -1 -1
 NAtoms=     12 NQM=       12 NQMF=       0 NMMI=      0 NMMIF=      0
                NMic=       0 NMicF=      0.
                    Isotopes and Nuclear Properties:
 (Nuclear quadrupole moments (NQMom) in fm**2, nuclear magnetic moments (NMagM)
  in nuclear magnetons)

  Atom         1           2           3           4           5           6           7           8           9          10
 IAtWgt=          12          12          12          12          12          12           1           1           1           1
 AtmWgt=  12.0000000  12.0000000  12.0000000  12.0000000  12.0000000  12.0000000   1.0078250   1.0078250   1.0078250   1.0078250
 NucSpn=           0           0           0           0           0           0           1           1           1           1
 AtZEff=  -0.0000000  -0.0000000  -0.0000000  -0.0000000  -0.0000000  -0.0000000  -0.0000000  -0.0000000  -0.0000000  -0.0000000
 NQMom=    0.0000000   0.0000000   0.0000000   0.0000000   0.0000000   0.0000000   0.0000000   0.0000000   0.0000000   0.0000000
 NMagM=    0.0000000   0.0000000   0.0000000   0.0000000   0.0000000   0.0000000   2.7928460   2.7928460   2.7928460   2.7928460
 AtZNuc=   6.0000000   6.0000000   6.0000000   6.0000000   6.0000000   6.0000000   1.0000000   1.0000000   1.0000000   1.0000000

  Atom        11          12
 IAtWgt=          19          19
 AtmWgt=  18.9984032  18.9984032
 NucSpn=           1           1
 AtZEff=  -0.0000000  -0.0000000
 NQMom=    0.0000000   0.0000000
 NMagM=    2.6288670   2.6288670
 AtZNuc=   9.0000000   9.0000000
 Leave Link  101 at Wed Jan 29 15:45:20 2025, MaxMem=   104857600 cpu:               0.0 elap:               0.0
 (Enter /sw/cluster/pub/apps//g16/l103.exe)

 GradGradGradGradGradGradGradGradGradGradGradGradGradGradGradGradGradGrad
 Berny optimization.
 Initialization pass.
                           ----------------------------
                           !    Initial Parameters    !
                           ! (Angstroms and Degrees)  !
 --------------------------                            --------------------------
 ! Name  Definition              Value          Derivative Info.                !
 --------------------------------------------------------------------------------
 ! R1    R(1,2)                  1.3899         estimate D2E/DX2                !
 ! R2    R(1,6)                  1.3835         estimate D2E/DX2                !
 ! R3    R(1,7)                  1.0836         estimate D2E/DX2                !
 ! R4    R(2,3)                  1.3835         estimate D2E/DX2                !
 ! R5    R(2,8)                  1.0836         estimate D2E/DX2                !
 ! R6    R(3,4)                  1.3835         estimate D2E/DX2                !
 ! R7    R(3,11)                 1.3438         estimate D2E/DX2                !
 ! R8    R(4,5)                  1.3899         estimate D2E/DX2                !
 ! R9    R(4,9)                  1.0836         estimate D2E/DX2                !
 ! R10   R(5,6)                  1.3835         estimate D2E/DX2                !
 ! R11   R(5,10)                 1.0836         estimate D2E/DX2                !
 ! R12   R(6,12)                 1.3438         estimate D2E/DX2                !
 ! A1    A(2,1,6)              118.897          estimate D2E/DX2                !
 ! A2    A(2,1,7)              121.3019         estimate D2E/DX2                !
 ! A3    A(6,1,7)              119.8011         estimate D2E/DX2                !
 ! A4    A(1,2,3)              118.897          estimate D2E/DX2                !
 ! A5    A(1,2,8)              121.3019         estimate D2E/DX2                !
 ! A6    A(3,2,8)              119.8011         estimate D2E/DX2                !
 ! A7    A(2,3,4)              122.2061         estimate D2E/DX2                !
 ! A8    A(2,3,11)             118.897          estimate D2E/DX2                !
 ! A9    A(4,3,11)             118.897          estimate D2E/DX2                !
 ! A10   A(3,4,5)              118.897          estimate D2E/DX2                !
 ! A11   A(3,4,9)              119.8011         estimate D2E/DX2                !
 ! A12   A(5,4,9)              121.3019         estimate D2E/DX2                !
 ! A13   A(4,5,6)              118.897          estimate D2E/DX2                !
 ! A14   A(4,5,10)             121.3019         estimate D2E/DX2                !
 ! A15   A(6,5,10)             119.8011         estimate D2E/DX2                !
 ! A16   A(1,6,5)              122.2061         estimate D2E/DX2                !
 ! A17   A(1,6,12)             118.897          estimate D2E/DX2                !
 ! A18   A(5,6,12)             118.897          estimate D2E/DX2                !
 ! D1    D(6,1,2,3)              0.0            estimate D2E/DX2                !
 ! D2    D(6,1,2,8)            180.0            estimate D2E/DX2                !
 ! D3    D(7,1,2,3)            180.0            estimate D2E/DX2                !
 ! D4    D(7,1,2,8)              0.0            estimate D2E/DX2                !
 ! D5    D(2,1,6,5)              0.0            estimate D2E/DX2                !
 ! D6    D(2,1,6,12)           180.0            estimate D2E/DX2                !
 ! D7    D(7,1,6,5)            180.0            estimate D2E/DX2                !
 ! D8    D(7,1,6,12)             0.0            estimate D2E/DX2                !
 ! D9    D(1,2,3,4)              0.0            estimate D2E/DX2                !
 ! D10   D(1,2,3,11)           180.0            estimate D2E/DX2                !
 ! D11   D(8,2,3,4)            180.0            estimate D2E/DX2                !
 ! D12   D(8,2,3,11)             0.0            estimate D2E/DX2                !
 ! D13   D(2,3,4,5)              0.0            estimate D2E/DX2                !
 ! D14   D(2,3,4,9)            180.0            estimate D2E/DX2                !
 ! D15   D(11,3,4,5)           180.0            estimate D2E/DX2                !
 ! D16   D(11,3,4,9)             0.0            estimate D2E/DX2                !
 ! D17   D(3,4,5,6)              0.0            estimate D2E/DX2                !
 ! D18   D(3,4,5,10)           180.0            estimate D2E/DX2                !
 ! D19   D(9,4,5,6)            180.0            estimate D2E/DX2                !
 ! D20   D(9,4,5,10)             0.0            estimate D2E/DX2                !
 ! D21   D(4,5,6,1)              0.0            estimate D2E/DX2                !
 ! D22   D(4,5,6,12)           180.0            estimate D2E/DX2                !
 ! D23   D(10,5,6,1)           180.0            estimate D2E/DX2                !
 ! D24   D(10,5,6,12)            0.0            estimate D2E/DX2                !
 --------------------------------------------------------------------------------
 Trust Radius=3.00D-01 FncErr=1.00D-07 GrdErr=1.00D-06 EigMax=2.50D+02 EigMin=1.00D-04
 Number of steps in this run=     64 maximum allowed number of steps=    100.
 GradGradGradGradGradGradGradGradGradGradGradGradGradGradGradGradGradGrad

 Leave Link  103 at Wed Jan 29 15:45:20 2025, MaxMem=   104857600 cpu:               0.0 elap:               0.0
 (Enter /sw/cluster/pub/apps//g16/l202.exe)
                          Input orientation:                          
 ---------------------------------------------------------------------
 Center     Atomic      Atomic             Coordinates (Angstroms)
 Number     Number       Type             X           Y           Z
 ---------------------------------------------------------------------
      1          6           0        1.211215    0.694971    0.000000
      2          6           0        1.211215   -0.694971   -0.000000
      3          6           0        0.000000   -1.363514    0.000000
      4          6           0       -1.211215   -0.694971   -0.000000
      5          6           0       -1.211215    0.694971    0.000000
      6          6           0        0.000000    1.363514    0.000000
      7          1           0        2.137078    1.257947    0.000000
      8          1           0        2.137078   -1.257947   -0.000000
      9          1           0       -2.137078   -1.257947    0.000000
     10          1           0       -2.137078    1.257947    0.000000
     11          9           0        0.000000   -2.707327    0.000000
     12          9           0        0.000000    2.707327   -0.000000
 ---------------------------------------------------------------------
                    Distance matrix (angstroms):
                    1          2          3          4          5
     1  C    0.000000
     2  C    1.389942   0.000000
     3  C    2.388390   1.383471   0.000000
     4  C    2.792868   2.422431   1.383471   0.000000
     5  C    2.422431   2.792868   2.388390   1.389942   0.000000
     6  C    1.383471   2.388390   2.727028   2.388390   1.383471
     7  H    1.083588   2.161275   3.382183   3.876204   3.395292
     8  H    2.161275   1.083588   2.139684   3.395292   3.876204
     9  H    3.876204   3.395292   2.139684   1.083588   2.161275
    10  H    3.395292   3.876204   3.382183   2.161275   1.083588
    11  F    3.611465   2.348748   1.343813   2.348748   3.611465
    12  F    2.348748   3.611465   4.070841   3.611465   2.348748
                    6          7          8          9         10
     6  C    0.000000
     7  H    2.139684   0.000000
     8  H    3.382183   2.515894   0.000000
     9  H    3.382183   4.959650   4.274156   0.000000
    10  H    2.139684   4.274156   4.959650   2.515894   0.000000
    11  F    4.070841   4.504498   2.582209   2.582209   4.504498
    12  F    1.343813   2.582209   4.504498   4.504498   2.582209
                   11         12
    11  F    0.000000
    12  F    5.414654   0.000000
 Symmetry turned off by external request.
 Stoichiometry    C6H4F2(1+,2)
 Framework group  D2H[C2"(FC.CF),SG(C4H4)]
 Deg. of freedom     6
 Full point group                 D2H     NOp   8
 Rotational constants (GHZ):           5.6893211           1.4329481           1.1446495
 Leave Link  202 at Wed Jan 29 15:45:20 2025, MaxMem=   104857600 cpu:               0.0 elap:               0.0
 (Enter /sw/cluster/pub/apps//g16/l301.exe)
 Standard basis: 6-311++G(d,p) (5D, 7F)
 Ernie: Thresh=  0.10000D-02 Tol=  0.10000D-05 Strict=F.
   204 basis functions,   324 primitive gaussians,   212 cartesian basis functions
    29 alpha electrons       28 beta electrons
       nuclear repulsion energy       342.3452495129 Hartrees.
 IExCor= 1009 DFT=T Ex+Corr=PBE1PBE ExCW=0 ScaHFX=  0.250000
 ScaDFX=  0.750000  0.750000  1.000000  1.000000 ScalE2=  1.000000  1.000000
 IRadAn=      5 IRanWt=     -1 IRanGd=            0 ICorTp=0 IEmpDi=  4
 NAtoms=   12 NActive=   12 NUniq=   12 SFac= 1.00D+00 NAtFMM=   60 NAOKFM=F Big=F
 Integral buffers will be    131072 words long.
 Raffenetti 2 integral format.
 Two-electron integral symmetry is turned off.
 Leave Link  301 at Wed Jan 29 15:45:20 2025, MaxMem=   104857600 cpu:               0.0 elap:               0.0
 (Enter /sw/cluster/pub/apps//g16/l302.exe)
 NPDir=0 NMtPBC=     1 NCelOv=     1 NCel=       1 NClECP=     1 NCelD=      1
         NCelK=      1 NCelE2=     1 NClLst=     1 CellRange=     0.0.
 One-electron integrals computed using PRISM.
 NBasis=   204 RedAO= T EigKep=  2.22D-06  NBF=   204
 NBsUse=   204 1.00D-06 EigRej= -1.00D+00 NBFU=   204
 Precomputing XC quadrature grid using
 IXCGrd= 4 IRadAn=           5 IRanWt=          -1 IRanGd=           0 AccXCQ= 0.00D+00.
 Generated NRdTot=       0 NPtTot=           0 NUsed=           0 NTot=          32
 NSgBfM=   212   212   212   212   212 MxSgAt=    12 MxSgA2=    12.
 Leave Link  302 at Wed Jan 29 15:45:20 2025, MaxMem=   104857600 cpu:               0.1 elap:               0.1
 (Enter /sw/cluster/pub/apps//g16/l303.exe)
 DipDrv:  MaxL=1.
 Leave Link  303 at Wed Jan 29 15:45:20 2025, MaxMem=   104857600 cpu:               0.0 elap:               0.0
 (Enter /sw/cluster/pub/apps//g16/l401.exe)
 ExpMin= 3.60D-02 ExpMax= 1.14D+04 ExpMxC= 1.72D+03 IAcc=3 IRadAn=         5 AccDes= 0.00D+00
 Harris functional with IExCor= 1009 and IRadAn=       5 diagonalized for initial guess.
 HarFok:  IExCor= 1009 AccDes= 0.00D+00 IRadAn=         5 IDoV= 1 UseB2=F ITyADJ=14
 ICtDFT=  3500011 ScaDFX=  1.000000  1.000000  1.000000  1.000000
 FoFCou: FMM=F IPFlag=           0 FMFlag=      100000 FMFlg1=           0
         NFxFlg=           0 DoJE=T BraDBF=F KetDBF=T FulRan=T
         wScrn=  0.000000 ICntrl=       500 IOpCl=  0 I1Cent=   200000004 NGrid=           0
         NMat0=    1 NMatS0=      1 NMatT0=    0 NMatD0=    1 NMtDS0=    0 NMtDT0=    0
 Symmetry not used in FoFCou.
 Harris En= -430.135082502234    
 JPrj=0 DoOrth=F DoCkMO=F.
 Initial guess <Sx>= 0.0000 <Sy>= 0.0000 <Sz>= 0.5000 <S**2>= 0.7500 S= 0.5000
 Leave Link  401 at Wed Jan 29 15:45:21 2025, MaxMem=   104857600 cpu:               1.2 elap:               1.2
 (Enter /sw/cluster/pub/apps//g16/l502.exe)
 Two-electron integral symmetry not used.
 UHF open shell SCF:
 Using DIIS extrapolation, IDIIS=  1040.
 NGot=   104857600 LenX=   104764860 LenY=   104719475
 Requested convergence on RMS density matrix=1.00D-08 within 128 cycles.
 Requested convergence on MAX density matrix=1.00D-06.
 Requested convergence on             energy=1.00D-06.
 No special actions if energy rises.
 Fock matrices will be formed incrementally for  20 cycles.

 Cycle   1  Pass 1  IDiag  1:
 FoFJK:  IHMeth= 1 ICntrl=       0 DoSepK=F KAlg= 0 I1Cent=           0 FoldK=F
 IRaf= 970000000 NMat=       1 IRICut=       1 DoRegI=T DoRafI=F ISym2E= 0 IDoP0=0 IntGTp=1.
 FoFCou: FMM=F IPFlag=           0 FMFlag=      100000 FMFlg1=           0
         NFxFlg=           0 DoJE=F BraDBF=F KetDBF=F FulRan=T
         wScrn=  0.000000 ICntrl=         0 IOpCl=  1 I1Cent=           0 NGrid=           0
         NMat0=    1 NMatS0=      1 NMatT0=    0 NMatD0=    1 NMtDS0=    0 NMtDT0=    0
 Symmetry not used in FoFCou.
 E= -429.942223247278    
 DIIS: error= 3.23D-02 at cycle   1 NSaved=   1.
 NSaved= 1 IEnMin= 1 EnMin= -429.942223247278     IErMin= 1 ErrMin= 3.23D-02
 ErrMax= 3.23D-02  0.00D+00 EMaxC= 1.00D-01 BMatC= 4.83D-01 BMatP= 4.83D-01
 IDIUse=3 WtCom= 6.77D-01 WtEn= 3.23D-01
 Coeff-Com:  0.100D+01
 Coeff-En:   0.100D+01
 Coeff:      0.100D+01
 Gap=     0.308 Goal=   None    Shift=    0.000
 Gap=     0.026 Goal=   None    Shift=    0.000
 GapD=    0.026 DampG=0.250 DampE=0.500 DampFc=0.2500 IDamp=-1.
 Damping current iteration by 2.50D-01
 RMSDP=7.18D-03 MaxDP=2.52D-01              OVMax= 1.98D-01

 Cycle   2  Pass 1  IDiag  1:
 RMSU=  1.36D-03    CP:  9.75D-01
 E= -429.975102800935     Delta-E=       -0.032879553657 Rises=F Damp=T
 DIIS: error= 1.82D-02 at cycle   2 NSaved=   2.
 NSaved= 2 IEnMin= 2 EnMin= -429.975102800935     IErMin= 2 ErrMin= 1.82D-02
 ErrMax= 1.82D-02  0.00D+00 EMaxC= 1.00D-01 BMatC= 1.60D-01 BMatP= 4.83D-01
 IDIUse=3 WtCom= 8.18D-01 WtEn= 1.82D-01
 Coeff-Com: -0.104D+01 0.204D+01
 Coeff-En:   0.000D+00 0.100D+01
 Coeff:     -0.853D+00 0.185D+01
 Gap=     0.270 Goal=   None    Shift=    0.000
 Gap=     0.099 Goal=   None    Shift=    0.000
 RMSDP=5.71D-03 MaxDP=2.11D-01 DE=-3.29D-02 OVMax= 1.12D-01

 Cycle   3  Pass 1  IDiag  1:
 RMSU=  1.71D-03    CP:  8.78D-01  3.00D+00
 E= -430.035029868277     Delta-E=       -0.059927067342 Rises=F Damp=F
 DIIS: error= 4.69D-03 at cycle   3 NSaved=   3.
 NSaved= 3 IEnMin= 3 EnMin= -430.035029868277     IErMin= 3 ErrMin= 4.69D-03
 ErrMax= 4.69D-03  0.00D+00 EMaxC= 1.00D-01 BMatC= 7.50D-03 BMatP= 1.60D-01
 IDIUse=3 WtCom= 9.53D-01 WtEn= 4.69D-02
 Coeff-Com: -0.285D+00 0.518D+00 0.767D+00
 Coeff-En:   0.000D+00 0.000D+00 0.100D+01
 Coeff:     -0.271D+00 0.494D+00 0.777D+00
 Gap=     0.261 Goal=   None    Shift=    0.000
 Gap=     0.092 Goal=   None    Shift=    0.000
 RMSDP=1.13D-03 MaxDP=5.52D-02 DE=-5.99D-02 OVMax= 2.58D-02

 Cycle   4  Pass 1  IDiag  1:
 RMSU=  7.03D-04    CP:  8.59D-01  3.00D+00  9.06D-01
 E= -430.035653425849     Delta-E=       -0.000623557572 Rises=F Damp=F
 DIIS: error= 4.13D-03 at cycle   4 NSaved=   4.
 NSaved= 4 IEnMin= 4 EnMin= -430.035653425849     IErMin= 4 ErrMin= 4.13D-03
 ErrMax= 4.13D-03  0.00D+00 EMaxC= 1.00D-01 BMatC= 5.05D-03 BMatP= 7.50D-03
 IDIUse=3 WtCom= 9.59D-01 WtEn= 4.13D-02
 Coeff-Com: -0.862D-01 0.141D+00 0.462D+00 0.483D+00
 Coeff-En:   0.000D+00 0.000D+00 0.334D+00 0.666D+00
 Coeff:     -0.826D-01 0.135D+00 0.457D+00 0.490D+00
 Gap=     0.261 Goal=   None    Shift=    0.000
 Gap=     0.094 Goal=   None    Shift=    0.000
 RMSDP=3.18D-04 MaxDP=1.11D-02 DE=-6.24D-04 OVMax= 1.02D-02

 Cycle   5  Pass 1  IDiag  1:
 RMSU=  1.46D-04    CP:  8.62D-01  3.00D+00  9.60D-01  6.55D-01
 E= -430.036347630499     Delta-E=       -0.000694204650 Rises=F Damp=F
 DIIS: error= 9.16D-04 at cycle   5 NSaved=   5.
 NSaved= 5 IEnMin= 5 EnMin= -430.036347630499     IErMin= 5 ErrMin= 9.16D-04
 ErrMax= 9.16D-04  0.00D+00 EMaxC= 1.00D-01 BMatC= 2.01D-04 BMatP= 5.05D-03
 IDIUse=3 WtCom= 9.91D-01 WtEn= 9.16D-03
 Coeff-Com: -0.223D-02 0.458D-03 0.108D+00 0.207D+00 0.687D+00
 Coeff-En:   0.000D+00 0.000D+00 0.000D+00 0.000D+00 0.100D+01
 Coeff:     -0.220D-02 0.454D-03 0.107D+00 0.206D+00 0.690D+00
 Gap=     0.261 Goal=   None    Shift=    0.000
 Gap=     0.096 Goal=   None    Shift=    0.000
 RMSDP=1.29D-04 MaxDP=6.06D-03 DE=-6.94D-04 OVMax= 4.83D-03

 Cycle   6  Pass 1  IDiag  1:
 RMSU=  6.87D-05    CP:  8.60D-01  3.00D+00  9.63D-01  7.30D-01  8.92D-01
 E= -430.036398006409     Delta-E=       -0.000050375910 Rises=F Damp=F
 DIIS: error= 3.08D-04 at cycle   6 NSaved=   6.
 NSaved= 6 IEnMin= 6 EnMin= -430.036398006409     IErMin= 6 ErrMin= 3.08D-04
 ErrMax= 3.08D-04  0.00D+00 EMaxC= 1.00D-01 BMatC= 2.67D-05 BMatP= 2.01D-04
 IDIUse=3 WtCom= 9.97D-01 WtEn= 3.08D-03
 Coeff-Com:  0.107D-01-0.177D-01-0.157D-01-0.575D-02 0.241D+00 0.788D+00
 Coeff-En:   0.000D+00 0.000D+00 0.000D+00 0.000D+00 0.000D+00 0.100D+01
 Coeff:      0.107D-01-0.177D-01-0.156D-01-0.573D-02 0.240D+00 0.788D+00
 Gap=     0.262 Goal=   None    Shift=    0.000
 Gap=     0.096 Goal=   None    Shift=    0.000
 RMSDP=4.20D-05 MaxDP=1.21D-03 DE=-5.04D-05 OVMax= 1.30D-03

 Cycle   7  Pass 1  IDiag  1:
 RMSU=  2.71D-05    CP:  8.60D-01  3.00D+00  9.73D-01  7.06D-01  9.85D-01
                    CP:  7.67D-01
 E= -430.036408038277     Delta-E=       -0.000010031868 Rises=F Damp=F
 DIIS: error= 1.04D-04 at cycle   7 NSaved=   7.
 NSaved= 7 IEnMin= 7 EnMin= -430.036408038277     IErMin= 7 ErrMin= 1.04D-04
 ErrMax= 1.04D-04  0.00D+00 EMaxC= 1.00D-01 BMatC= 2.19D-06 BMatP= 2.67D-05
 IDIUse=3 WtCom= 9.99D-01 WtEn= 1.04D-03
 Coeff-Com:  0.314D-02-0.425D-02-0.253D-01-0.498D-01-0.116D+00 0.102D+00
 Coeff-Com:  0.109D+01
 Coeff-En:   0.000D+00 0.000D+00 0.000D+00 0.000D+00 0.000D+00 0.000D+00
 Coeff-En:   0.100D+01
 Coeff:      0.314D-02-0.425D-02-0.253D-01-0.498D-01-0.116D+00 0.102D+00
 Coeff:      0.109D+01
 Gap=     0.262 Goal=   None    Shift=    0.000
 Gap=     0.097 Goal=   None    Shift=    0.000
 RMSDP=1.75D-05 MaxDP=7.61D-04 DE=-1.00D-05 OVMax= 9.40D-04

 Cycle   8  Pass 1  IDiag  1:
 RMSU=  7.47D-06    CP:  8.60D-01  3.00D+00  9.75D-01  7.00D-01  1.05D+00
                    CP:  8.35D-01  1.39D+00
 E= -430.036409694028     Delta-E=       -0.000001655750 Rises=F Damp=F
 DIIS: error= 1.43D-05 at cycle   8 NSaved=   8.
 NSaved= 8 IEnMin= 8 EnMin= -430.036409694028     IErMin= 8 ErrMin= 1.43D-05
 ErrMax= 1.43D-05  0.00D+00 EMaxC= 1.00D-01 BMatC= 6.69D-08 BMatP= 2.19D-06
 IDIUse=1 WtCom= 1.00D+00 WtEn= 0.00D+00
 Coeff-Com: -0.230D-03 0.493D-03-0.779D-03-0.285D-02-0.188D-01-0.149D-01
 Coeff-Com:  0.405D-01 0.997D+00
 Coeff:     -0.230D-03 0.493D-03-0.779D-03-0.285D-02-0.188D-01-0.149D-01
 Coeff:      0.405D-01 0.997D+00
 Gap=     0.262 Goal=   None    Shift=    0.000
 Gap=     0.097 Goal=   None    Shift=    0.000
 RMSDP=3.22D-06 MaxDP=1.42D-04 DE=-1.66D-06 OVMax= 1.16D-04

 Cycle   9  Pass 1  IDiag  1:
 RMSU=  2.36D-06    CP:  8.60D-01  3.00D+00  9.75D-01  7.01D-01  1.05D+00
                    CP:  8.54D-01  1.43D+00  1.14D+00
 E= -430.036409728945     Delta-E=       -0.000000034918 Rises=F Damp=F
 DIIS: error= 4.39D-06 at cycle   9 NSaved=   9.
 NSaved= 9 IEnMin= 9 EnMin= -430.036409728945     IErMin= 9 ErrMin= 4.39D-06
 ErrMax= 4.39D-06  0.00D+00 EMaxC= 1.00D-01 BMatC= 7.11D-09 BMatP= 6.69D-08
 IDIUse=1 WtCom= 1.00D+00 WtEn= 0.00D+00
 Coeff-Com: -0.259D-03 0.360D-03 0.223D-02 0.417D-02 0.910D-02-0.851D-02
 Coeff-Com: -0.936D-01 0.745D-01 0.101D+01
 Coeff:     -0.259D-03 0.360D-03 0.223D-02 0.417D-02 0.910D-02-0.851D-02
 Coeff:     -0.936D-01 0.745D-01 0.101D+01
 Gap=     0.262 Goal=   None    Shift=    0.000
 Gap=     0.097 Goal=   None    Shift=    0.000
 RMSDP=1.73D-06 MaxDP=7.92D-05 DE=-3.49D-08 OVMax= 2.52D-05

 Cycle  10  Pass 1  IDiag  1:
 RMSU=  7.59D-07    CP:  8.60D-01  3.00D+00  9.75D-01  7.00D-01  1.05D+00
                    CP:  8.52D-01  1.46D+00  1.27D+00  1.11D+00
 E= -430.036409732146     Delta-E=       -0.000000003201 Rises=F Damp=F
 DIIS: error= 1.71D-06 at cycle  10 NSaved=  10.
 NSaved=10 IEnMin=10 EnMin= -430.036409732146     IErMin=10 ErrMin= 1.71D-06
 ErrMax= 1.71D-06  0.00D+00 EMaxC= 1.00D-01 BMatC= 5.57D-10 BMatP= 7.11D-09
 IDIUse=1 WtCom= 1.00D+00 WtEn= 0.00D+00
 Coeff-Com:  0.107D-04-0.245D-04-0.581D-04-0.101D-03 0.115D-02-0.130D-03
 Coeff-Com:  0.600D-02-0.732D-01-0.900D-01 0.116D+01
 Coeff:      0.107D-04-0.245D-04-0.581D-04-0.101D-03 0.115D-02-0.130D-03
 Coeff:      0.600D-02-0.732D-01-0.900D-01 0.116D+01
 Gap=     0.262 Goal=   None    Shift=    0.000
 Gap=     0.097 Goal=   None    Shift=    0.000
 RMSDP=4.33D-07 MaxDP=1.92D-05 DE=-3.20D-09 OVMax= 7.05D-06

 Cycle  11  Pass 1  IDiag  1:
 RMSU=  1.58D-07    CP:  8.60D-01  3.00D+00  9.75D-01  7.00D-01  1.05D+00
                    CP:  8.53D-01  1.46D+00  1.28D+00  1.25D+00  1.14D+00
 E= -430.036409732411     Delta-E=       -0.000000000265 Rises=F Damp=F
 DIIS: error= 3.55D-07 at cycle  11 NSaved=  11.
 NSaved=11 IEnMin=11 EnMin= -430.036409732411     IErMin=11 ErrMin= 3.55D-07
 ErrMax= 3.55D-07  0.00D+00 EMaxC= 1.00D-01 BMatC= 1.32D-11 BMatP= 5.57D-10
 IDIUse=1 WtCom= 1.00D+00 WtEn= 0.00D+00
 Coeff-Com:  0.789D-05-0.107D-04-0.672D-04-0.153D-03-0.352D-03 0.264D-03
 Coeff-Com:  0.282D-02 0.142D-02-0.326D-01-0.726D-01 0.110D+01
 Coeff:      0.789D-05-0.107D-04-0.672D-04-0.153D-03-0.352D-03 0.264D-03
 Coeff:      0.282D-02 0.142D-02-0.326D-01-0.726D-01 0.110D+01
 Gap=     0.262 Goal=   None    Shift=    0.000
 Gap=     0.097 Goal=   None    Shift=    0.000
 RMSDP=9.23D-08 MaxDP=4.43D-06 DE=-2.65D-10 OVMax= 1.49D-06

 Cycle  12  Pass 1  IDiag  1:
 RMSU=  2.77D-08    CP:  8.60D-01  3.00D+00  9.75D-01  7.00D-01  1.05D+00
                    CP:  8.53D-01  1.46D+00  1.29D+00  1.26D+00  1.21D+00
                    CP:  1.07D+00
 E= -430.036409732417     Delta-E=       -0.000000000006 Rises=F Damp=F
 DIIS: error= 4.72D-08 at cycle  12 NSaved=  12.
 NSaved=12 IEnMin=12 EnMin= -430.036409732417     IErMin=12 ErrMin= 4.72D-08
 ErrMax= 4.72D-08  0.00D+00 EMaxC= 1.00D-01 BMatC= 4.96D-13 BMatP= 1.32D-11
 IDIUse=1 WtCom= 1.00D+00 WtEn= 0.00D+00
 Coeff-Com: -0.991D-06 0.155D-05 0.103D-05 0.910D-05-0.262D-04-0.331D-05
 Coeff-Com: -0.269D-03 0.228D-02 0.393D-02-0.385D-01-0.287D-01 0.106D+01
 Coeff:     -0.991D-06 0.155D-05 0.103D-05 0.910D-05-0.262D-04-0.331D-05
 Coeff:     -0.269D-03 0.228D-02 0.393D-02-0.385D-01-0.287D-01 0.106D+01
 Gap=     0.262 Goal=   None    Shift=    0.000
 Gap=     0.097 Goal=   None    Shift=    0.000
 RMSDP=1.28D-08 MaxDP=6.02D-07 DE=-5.91D-12 OVMax= 3.76D-07

 Cycle  13  Pass 1  IDiag  1:
 RMSU=  3.30D-09    CP:  8.60D-01  3.00D+00  9.75D-01  7.00D-01  1.05D+00
                    CP:  8.53D-01  1.46D+00  1.29D+00  1.27D+00  1.21D+00
                    CP:  1.11D+00  1.11D+00
 E= -430.036409732418     Delta-E=       -0.000000000002 Rises=F Damp=F
 DIIS: error= 1.33D-08 at cycle  13 NSaved=  13.
 NSaved=13 IEnMin=13 EnMin= -430.036409732418     IErMin=13 ErrMin= 1.33D-08
 ErrMax= 1.33D-08  0.00D+00 EMaxC= 1.00D-01 BMatC= 3.53D-14 BMatP= 4.96D-13
 IDIUse=1 WtCom= 1.00D+00 WtEn= 0.00D+00
 Coeff-Com: -0.146D-06 0.225D-06 0.331D-05 0.603D-05 0.166D-04-0.121D-04
 Coeff-Com: -0.137D-03-0.383D-04 0.150D-02 0.277D-02-0.525D-01 0.235D-01
 Coeff-Com:  0.102D+01
 Coeff:     -0.146D-06 0.225D-06 0.331D-05 0.603D-05 0.166D-04-0.121D-04
 Coeff:     -0.137D-03-0.383D-04 0.150D-02 0.277D-02-0.525D-01 0.235D-01
 Coeff:      0.102D+01
 Gap=     0.262 Goal=   None    Shift=    0.000
 Gap=     0.097 Goal=   None    Shift=    0.000
 RMSDP=2.07D-09 MaxDP=6.84D-08 DE=-1.71D-12 OVMax= 4.37D-08

 SCF Done:  E(UPBE1PBE) =  -430.036409732     A.U. after   13 cycles
            NFock= 13  Conv=0.21D-08     -V/T= 2.0031
 <Sx>= 0.0000 <Sy>= 0.0000 <Sz>= 0.5000 <S**2>= 0.7605 S= 0.5052
 <L.S>=  0.00000000000    
 KE= 4.286930183142D+02 PE=-1.683583698941D+03 EE= 4.825090213812D+02
 Annihilation of the first spin contaminant:
 S**2 before annihilation     0.7605,   after     0.7500
 Leave Link  502 at Wed Jan 29 15:46:09 2025, MaxMem=   104857600 cpu:              47.9 elap:              47.9
 (Enter /sw/cluster/pub/apps//g16/l601.exe)
 Copying SCF densities to generalized density rwf, IOpCl= 1 IROHF=0.

 **********************************************************************

            Population analysis using the SCF density.

 **********************************************************************

 Alpha  occ. eigenvalues --  -25.02265 -25.02265 -10.58426 -10.58425 -10.48282
 Alpha  occ. eigenvalues --  -10.48280 -10.48220 -10.48219  -1.50045  -1.50029
 Alpha  occ. eigenvalues --   -1.15618  -1.03474  -1.03412  -0.90738  -0.87916
 Alpha  occ. eigenvalues --   -0.80661  -0.79226  -0.77711  -0.73842  -0.72613
 Alpha  occ. eigenvalues --   -0.70074  -0.68440  -0.67912  -0.66992  -0.63271
 Alpha  occ. eigenvalues --   -0.62014  -0.59933  -0.51815  -0.51696
 Alpha virt. eigenvalues --   -0.25486  -0.25239  -0.14303  -0.13664  -0.12352
 Alpha virt. eigenvalues --   -0.11388  -0.09336  -0.08675  -0.08027  -0.07722
 Alpha virt. eigenvalues --   -0.06686  -0.05403  -0.04864  -0.03368  -0.03139
 Alpha virt. eigenvalues --   -0.01650  -0.01117  -0.00387   0.00194   0.00291
 Alpha virt. eigenvalues --    0.00604   0.00747   0.02027   0.02253   0.02284
 Alpha virt. eigenvalues --    0.03316   0.06169   0.06940   0.07434   0.07704
 Alpha virt. eigenvalues --    0.07927   0.08253   0.11320   0.12013   0.13511
 Alpha virt. eigenvalues --    0.13616   0.14095   0.14186   0.16560   0.17881
 Alpha virt. eigenvalues --    0.19306   0.20255   0.20635   0.23019   0.24966
 Alpha virt. eigenvalues --    0.26197   0.26453   0.26573   0.29538   0.31242
 Alpha virt. eigenvalues --    0.33182   0.33657   0.35159   0.37461   0.37862
 Alpha virt. eigenvalues --    0.37939   0.38309   0.38999   0.41910   0.42227
 Alpha virt. eigenvalues --    0.42616   0.45992   0.49025   0.50658   0.57152
 Alpha virt. eigenvalues --    0.58430   0.59888   0.61392   0.64405   0.66047
 Alpha virt. eigenvalues --    0.67712   0.68134   0.69656   0.70800   0.73872
 Alpha virt. eigenvalues --    0.74999   0.76590   0.78993   0.81443   0.83348
 Alpha virt. eigenvalues --    0.84063   0.87904   0.92110   0.95427   1.08183
 Alpha virt. eigenvalues --    1.13617   1.22040   1.22556   1.23954   1.25221
 Alpha virt. eigenvalues --    1.26443   1.28753   1.32097   1.33510   1.33784
 Alpha virt. eigenvalues --    1.36772   1.38869   1.39014   1.39796   1.42593
 Alpha virt. eigenvalues --    1.45072   1.50567   1.52625   1.55349   1.66537
 Alpha virt. eigenvalues --    1.67303   1.67894   1.70118   1.71103   1.72918
 Alpha virt. eigenvalues --    1.74001   1.81612   1.84890   1.85640   1.86090
 Alpha virt. eigenvalues --    1.87396   1.89764   1.98373   2.05720   2.08593
 Alpha virt. eigenvalues --    2.08697   2.20077   2.26367   2.40089   2.40137
 Alpha virt. eigenvalues --    2.42654   2.47768   2.49489   2.51416   2.52059
 Alpha virt. eigenvalues --    2.56090   2.56299   2.56506   2.57728   2.62080
 Alpha virt. eigenvalues --    2.67259   2.75166   2.84859   2.88074   2.92051
 Alpha virt. eigenvalues --    2.99323   3.11955   3.17316   3.27346   3.39124
 Alpha virt. eigenvalues --    3.44547   3.54979   3.57014   3.57437   3.62379
 Alpha virt. eigenvalues --    3.66582   3.76909   3.78001   3.78846   3.89111
 Alpha virt. eigenvalues --    3.93009   3.94686   3.96845   4.62472   4.65985
 Alpha virt. eigenvalues --    4.68662   6.11877   6.14968   6.25899   6.28602
 Alpha virt. eigenvalues --    6.51942   6.62883  23.38615  23.71608  23.84340
 Alpha virt. eigenvalues --   23.91175  23.96790  24.05339  66.70927  66.73308
  Beta  occ. eigenvalues --  -25.01889 -25.01888 -10.57843 -10.57842 -10.48224
  Beta  occ. eigenvalues --  -10.48222 -10.48161 -10.48160  -1.49217  -1.49202
  Beta  occ. eigenvalues --   -1.14551  -1.03110  -1.01624  -0.90103  -0.87258
  Beta  occ. eigenvalues --   -0.80377  -0.78784  -0.77392  -0.70950  -0.69697
  Beta  occ. eigenvalues --   -0.69689  -0.68374  -0.67636  -0.66785  -0.62936
  Beta  occ. eigenvalues --   -0.59601  -0.58899  -0.51175
  Beta virt. eigenvalues --   -0.41498  -0.23870  -0.21260  -0.14015  -0.13299
  Beta virt. eigenvalues --   -0.11897  -0.11392  -0.08467  -0.07777  -0.07705
  Beta virt. eigenvalues --   -0.07292  -0.06565  -0.04867  -0.04825  -0.03125
  Beta virt. eigenvalues --   -0.02828  -0.01601  -0.00901   0.00061   0.00298
  Beta virt. eigenvalues --    0.00476   0.00777   0.00872   0.02073   0.02339
  Beta virt. eigenvalues --    0.02407   0.03344   0.06328   0.07439   0.07548
  Beta virt. eigenvalues --    0.07861   0.07991   0.08915   0.11510   0.12093
  Beta virt. eigenvalues --    0.13861   0.14107   0.14277   0.14299   0.16611
  Beta virt. eigenvalues --    0.18073   0.19434   0.20292   0.20908   0.23125
  Beta virt. eigenvalues --    0.25098   0.26345   0.26542   0.26657   0.29765
  Beta virt. eigenvalues --    0.32359   0.33314   0.34131   0.35214   0.38104
  Beta virt. eigenvalues --    0.38245   0.38509   0.39085   0.39264   0.42749
  Beta virt. eigenvalues --    0.42869   0.42973   0.46384   0.49881   0.51611
  Beta virt. eigenvalues --    0.57247   0.58556   0.59933   0.61664   0.65300
  Beta virt. eigenvalues --    0.66203   0.68272   0.68739   0.69735   0.70930
  Beta virt. eigenvalues --    0.75300   0.75398   0.77339   0.79462   0.81571
  Beta virt. eigenvalues --    0.83923   0.84311   0.89354   0.93906   0.96557
  Beta virt. eigenvalues --    1.08769   1.14461   1.22751   1.22909   1.24158
  Beta virt. eigenvalues --    1.26059   1.26646   1.28853   1.32790   1.33932
  Beta virt. eigenvalues --    1.34317   1.36932   1.39357   1.39810   1.40525
  Beta virt. eigenvalues --    1.43003   1.46542   1.50843   1.52827   1.55477
  Beta virt. eigenvalues --    1.68104   1.68204   1.68554   1.70411   1.71188
  Beta virt. eigenvalues --    1.73134   1.74819   1.82794   1.85107   1.86061
  Beta virt. eigenvalues --    1.86682   1.87732   1.90219   1.99117   2.05957
  Beta virt. eigenvalues --    2.08873   2.09765   2.20536   2.26349   2.40336
  Beta virt. eigenvalues --    2.41879   2.43181   2.47864   2.49569   2.52077
  Beta virt. eigenvalues --    2.53510   2.56237   2.56347   2.56555   2.58329
  Beta virt. eigenvalues --    2.64031   2.67797   2.75196   2.86315   2.88403
  Beta virt. eigenvalues --    2.92374   2.99805   3.12531   3.17376   3.27528
  Beta virt. eigenvalues --    3.39599   3.44897   3.55451   3.58064   3.58491
  Beta virt. eigenvalues --    3.63493   3.67612   3.78071   3.79079   3.79164
  Beta virt. eigenvalues --    3.89494   3.93652   3.94880   3.97034   4.63384
  Beta virt. eigenvalues --    4.66457   4.69130   6.13364   6.16449   6.26169
  Beta virt. eigenvalues --    6.28872   6.52261   6.63209  23.38942  23.72130
  Beta virt. eigenvalues --   23.84433  23.91518  23.96862  24.05495  66.71246
  Beta virt. eigenvalues --   66.73628
          Condensed to atoms (all electrons):
               1          2          3          4          5          6
     1  C    8.931255  -1.586670   1.202994   0.048143  -1.286015  -1.665634
     2  C   -1.586670   8.931255  -1.665634  -1.286015   0.048143   1.202994
     3  C    1.202994  -1.665634   8.638703  -1.665634   1.202994  -1.591379
     4  C    0.048143  -1.286015  -1.665634   8.931255  -1.586670   1.202994
     5  C   -1.286015   0.048143   1.202994  -1.586670   8.931255  -1.665634
     6  C   -1.665634   1.202994  -1.591379   1.202994  -1.665634   8.638703
     7  H    0.578390  -0.104798   0.076553   0.041590  -0.087626  -0.199576
     8  H   -0.104798   0.578390  -0.199576  -0.087626   0.041590   0.076553
     9  H    0.041590  -0.087626  -0.199576   0.578390  -0.104798   0.076553
    10  H   -0.087626   0.041590   0.076553  -0.104798   0.578390  -0.199576
    11  F    0.059885  -0.323588   0.699270  -0.323588   0.059885  -0.054961
    12  F   -0.323588   0.059885  -0.054961   0.059885  -0.323588   0.699270
               7          8          9         10         11         12
     1  C    0.578390  -0.104798   0.041590  -0.087626   0.059885  -0.323588
     2  C   -0.104798   0.578390  -0.087626   0.041590  -0.323588   0.059885
     3  C    0.076553  -0.199576  -0.199576   0.076553   0.699270  -0.054961
     4  C    0.041590  -0.087626   0.578390  -0.104798  -0.323588   0.059885
     5  C   -0.087626   0.041590  -0.104798   0.578390   0.059885  -0.323588
     6  C   -0.199576   0.076553   0.076553  -0.199576  -0.054961   0.699270
     7  H    0.396659  -0.011224   0.001814  -0.002373   0.001777  -0.023320
     8  H   -0.011224   0.396659  -0.002373   0.001814  -0.023320   0.001777
     9  H    0.001814  -0.002373   0.396659  -0.011224  -0.023320   0.001777
    10  H   -0.002373   0.001814  -0.011224   0.396659   0.001777  -0.023320
    11  F    0.001777  -0.023320  -0.023320   0.001777   8.954053   0.000235
    12  F   -0.023320   0.001777   0.001777  -0.023320   0.000235   8.954053
          Atomic-Atomic Spin Densities.
               1          2          3          4          5          6
     1  C   -0.019783   0.011684  -0.015007  -0.049042   0.041163   0.052853
     2  C    0.011684  -0.019783   0.052853   0.041163  -0.049042  -0.015007
     3  C   -0.015007   0.052853   0.377927   0.052853  -0.015007  -0.008967
     4  C   -0.049042   0.041163   0.052853  -0.019783   0.011684  -0.015007
     5  C    0.041163  -0.049042  -0.015007   0.011684  -0.019783   0.052853
     6  C    0.052853  -0.015007  -0.008967  -0.015007   0.052853   0.377927
     7  H   -0.010887   0.007341  -0.002186  -0.003573   0.004308   0.006371
     8  H    0.007341  -0.010887   0.006371   0.004308  -0.003573  -0.002186
     9  H   -0.003573   0.004308   0.006371  -0.010887   0.007341  -0.002186
    10  H    0.004308  -0.003573  -0.002186   0.007341  -0.010887   0.006371
    11  F    0.000352  -0.000346  -0.059990  -0.000346   0.000352  -0.000476
    12  F   -0.000346   0.000352  -0.000476   0.000352  -0.000346  -0.059990
               7          8          9         10         11         12
     1  C   -0.010887   0.007341  -0.003573   0.004308   0.000352  -0.000346
     2  C    0.007341  -0.010887   0.004308  -0.003573  -0.000346   0.000352
     3  C   -0.002186   0.006371   0.006371  -0.002186  -0.059990  -0.000476
     4  C   -0.003573   0.004308  -0.010887   0.007341  -0.000346   0.000352
     5  C    0.004308  -0.003573   0.007341  -0.010887   0.000352  -0.000346
     6  C    0.006371  -0.002186  -0.002186   0.006371  -0.000476  -0.059990
     7  H   -0.006968   0.001263  -0.000197   0.000320   0.000090  -0.000225
     8  H    0.001263  -0.006968   0.000320  -0.000197  -0.000225   0.000090
     9  H   -0.000197   0.000320  -0.006968   0.001263  -0.000225   0.000090
    10  H    0.000320  -0.000197   0.001263  -0.006968   0.000090  -0.000225
    11  F    0.000090  -0.000225  -0.000225   0.000090   0.138716   0.000009
    12  F   -0.000225   0.000090   0.000090  -0.000225   0.000009   0.138716
 Mulliken charges and spin densities:
               1          2
     1  C    0.192073   0.019064
     2  C    0.192073   0.019064
     3  C   -0.520307   0.392555
     4  C    0.192073   0.019064
     5  C    0.192073   0.019064
     6  C   -0.520307   0.392555
     7  H    0.332134  -0.004342
     8  H    0.332134  -0.004342
     9  H    0.332134  -0.004342
    10  H    0.332134  -0.004342
    11  F   -0.028106   0.078001
    12  F   -0.028106   0.078001
 Sum of Mulliken charges =   1.00000   1.00000
 Mulliken charges and spin densities with hydrogens summed into heavy atoms:
               1          2
     1  C    0.524206   0.014722
     2  C    0.524206   0.014722
     3  C   -0.520307   0.392555
     4  C    0.524206   0.014722
     5  C    0.524206   0.014722
     6  C   -0.520307   0.392555
    11  F   -0.028106   0.078001
    12  F   -0.028106   0.078001
 Electronic spatial extent (au):  <R**2>=            884.1021
 Charge=              1.0000 electrons
 Dipole moment (field-independent basis, Debye):
    X=              0.0000    Y=             -0.0000    Z=              0.0000  Tot=              0.0000
 Quadrupole moment (field-independent basis, Debye-Ang):
   XX=            -26.8592   YY=            -35.8521   ZZ=            -42.6316
   XY=             -0.0000   XZ=             -0.0000   YZ=              0.0000
 Traceless Quadrupole moment (field-independent basis, Debye-Ang):
   XX=              8.2551   YY=             -0.7378   ZZ=             -7.5173
   XY=             -0.0000   XZ=             -0.0000   YZ=              0.0000
 Octapole moment (field-independent basis, Debye-Ang**2):
  XXX=             -0.0000  YYY=             -0.0000  ZZZ=              0.0000  XYY=              0.0000
  XXY=             -0.0000  XXZ=             -0.0000  XZZ=             -0.0000  YZZ=             -0.0000
  YYZ=              0.0000  XYZ=              0.0000
 Hexadecapole moment (field-independent basis, Debye-Ang**3):
 XXXX=           -199.0501 YYYY=           -654.5882 ZZZZ=            -39.9964 XXXY=              0.0000
 XXXZ=             -0.0000 YYYX=             -0.0000 YYYZ=              0.0000 ZZZX=             -0.0000
 ZZZY=              0.0000 XXYY=           -124.8417 XXZZ=            -56.7918 YYZZ=           -112.1509
 XXYZ=              0.0000 YYXZ=             -0.0000 ZZXY=             -0.0000
 N-N= 3.423452495129D+02 E-N=-1.683583698780D+03  KE= 4.286930183142D+02
                          Isotropic Fermi Contact Couplings
        Atom                 a.u.       MegaHertz       Gauss      10(-4) cm-1
     1  C(13)             -0.00885      -9.94471      -3.54852      -3.31720
     2  C(13)             -0.00885      -9.94471      -3.54852      -3.31720
     3  C(13)              0.01469      16.51955       5.89459       5.51033
     4  C(13)             -0.00885      -9.94471      -3.54852      -3.31720
     5  C(13)             -0.00885      -9.94471      -3.54852      -3.31720
     6  C(13)              0.01469      16.51955       5.89459       5.51033
     7  H(1)              -0.00114      -5.09235      -1.81708      -1.69863
     8  H(1)              -0.00114      -5.09235      -1.81708      -1.69863
     9  H(1)              -0.00114      -5.09235      -1.81708      -1.69863
    10  H(1)              -0.00114      -5.09235      -1.81708      -1.69863
    11  F(19)              0.01851      77.86155      27.78294      25.97182
    12  F(19)              0.01851      77.86155      27.78294      25.97182
 --------------------------------------------------------
       Center         ----  Spin Dipole Couplings  ----
                      3XX-RR        3YY-RR        3ZZ-RR
 --------------------------------------------------------
     1   Atom       -0.027938     -0.036999      0.064937
     2   Atom       -0.027938     -0.036999      0.064937
     3   Atom       -0.226549     -0.222974      0.449523
     4   Atom       -0.027938     -0.036999      0.064937
     5   Atom       -0.027938     -0.036999      0.064937
     6   Atom       -0.226549     -0.222974      0.449523
     7   Atom        0.012928     -0.006996     -0.005933
     8   Atom        0.012928     -0.006996     -0.005933
     9   Atom        0.012928     -0.006996     -0.005933
    10   Atom        0.012928     -0.006996     -0.005933
    11   Atom       -0.379701     -0.403582      0.783283
    12   Atom       -0.379701     -0.403582      0.783283
 --------------------------------------------------------
                        XY            XZ            YZ
 --------------------------------------------------------
     1   Atom       -0.002596     -0.000000     -0.000000
     2   Atom        0.002596      0.000000     -0.000000
     3   Atom        0.000000     -0.000000      0.000000
     4   Atom       -0.002596     -0.000000     -0.000000
     5   Atom        0.002596      0.000000     -0.000000
     6   Atom       -0.000000      0.000000      0.000000
     7   Atom        0.003791      0.000000      0.000000
     8   Atom       -0.003791     -0.000000      0.000000
     9   Atom        0.003791      0.000000     -0.000000
    10   Atom       -0.003791     -0.000000     -0.000000
    11   Atom        0.000000      0.000000      0.000000
    12   Atom       -0.000000     -0.000000      0.000000
 --------------------------------------------------------


 ---------------------------------------------------------------------------------
              Anisotropic Spin Dipole Couplings in Principal Axis System
 ---------------------------------------------------------------------------------

       Atom             a.u.   MegaHertz   Gauss  10(-4) cm-1        Axes

              Baa    -0.0377    -5.058    -1.805    -1.687  0.2572  0.9664  0.0000
     1 C(13)  Bbb    -0.0272    -3.656    -1.305    -1.220  0.9664 -0.2572  0.0000
              Bcc     0.0649     8.714     3.109     2.907 -0.0000 -0.0000  1.0000
 
              Baa    -0.0377    -5.058    -1.805    -1.687 -0.2572  0.9664  0.0000
     2 C(13)  Bbb    -0.0272    -3.656    -1.305    -1.220  0.9664  0.2572 -0.0000
              Bcc     0.0649     8.714     3.109     2.907  0.0000 -0.0000  1.0000
 
              Baa    -0.2265   -30.401   -10.848   -10.141  1.0000 -0.0000  0.0000
     3 C(13)  Bbb    -0.2230   -29.921   -10.677    -9.981  0.0000  1.0000 -0.0000
              Bcc     0.4495    60.322    21.524    20.121 -0.0000  0.0000  1.0000
 
              Baa    -0.0377    -5.058    -1.805    -1.687  0.2572  0.9664  0.0000
     4 C(13)  Bbb    -0.0272    -3.656    -1.305    -1.220  0.9664 -0.2572 -0.0000
              Bcc     0.0649     8.714     3.109     2.907 -0.0000 -0.0000  1.0000
 
              Baa    -0.0377    -5.058    -1.805    -1.687 -0.2572  0.9664  0.0000
     5 C(13)  Bbb    -0.0272    -3.656    -1.305    -1.220  0.9664  0.2572  0.0000
              Bcc     0.0649     8.714     3.109     2.907  0.0000 -0.0000  1.0000
 
              Baa    -0.2265   -30.401   -10.848   -10.141  1.0000  0.0000 -0.0000
     6 C(13)  Bbb    -0.2230   -29.921   -10.677    -9.981 -0.0000  1.0000 -0.0000
              Bcc     0.4495    60.322    21.524    20.121  0.0000  0.0000  1.0000
 
              Baa    -0.0077    -4.104    -1.465    -1.369 -0.1808  0.9835  0.0000
     7 H(1)   Bbb    -0.0059    -3.165    -1.129    -1.056 -0.0000 -0.0000  1.0000
              Bcc     0.0136     7.270     2.594     2.425  0.9835  0.1808  0.0000
 
              Baa    -0.0077    -4.104    -1.465    -1.369  0.1808  0.9835  0.0000
     8 H(1)   Bbb    -0.0059    -3.165    -1.129    -1.056  0.0000 -0.0000  1.0000
              Bcc     0.0136     7.270     2.594     2.425  0.9835 -0.1808 -0.0000
 
              Baa    -0.0077    -4.104    -1.465    -1.369 -0.1808  0.9835  0.0000
     9 H(1)   Bbb    -0.0059    -3.165    -1.129    -1.056 -0.0000 -0.0000  1.0000
              Bcc     0.0136     7.270     2.594     2.425  0.9835  0.1808  0.0000
 
              Baa    -0.0077    -4.104    -1.465    -1.369  0.1808  0.9835  0.0000
    10 H(1)   Bbb    -0.0059    -3.165    -1.129    -1.056  0.0000 -0.0000  1.0000
              Bcc     0.0136     7.270     2.594     2.425  0.9835 -0.1808 -0.0000
 
              Baa    -0.4036  -202.689   -72.325   -67.610 -0.0000  1.0000 -0.0000
    11 F(19)  Bbb    -0.3797  -190.695   -68.045   -63.609  1.0000  0.0000 -0.0000
              Bcc     0.7833   393.385   140.370   131.219  0.0000  0.0000  1.0000
 
              Baa    -0.4036  -202.689   -72.325   -67.610  0.0000  1.0000 -0.0000
    12 F(19)  Bbb    -0.3797  -190.695   -68.045   -63.609  1.0000 -0.0000  0.0000
              Bcc     0.7833   393.385   140.370   131.219 -0.0000  0.0000  1.0000
 

 ---------------------------------------------------------------------------------

 No NMR shielding tensors so no spin-rotation constants.
 Leave Link  601 at Wed Jan 29 15:46:09 2025, MaxMem=   104857600 cpu:               0.1 elap:               0.1
 (Enter /sw/cluster/pub/apps//g16/l701.exe)
 ... and contract with generalized density number  0.
 Compute integral first derivatives.
 Leave Link  701 at Wed Jan 29 15:46:10 2025, MaxMem=   104857600 cpu:               0.0 elap:               0.1
 (Enter /sw/cluster/pub/apps//g16/l702.exe)
 L702 exits ... SP integral derivatives will be done elsewhere.
 Leave Link  702 at Wed Jan 29 15:46:10 2025, MaxMem=   104857600 cpu:               0.0 elap:               0.0
 (Enter /sw/cluster/pub/apps//g16/l703.exe)
 Integral derivatives from FoFJK, PRISM(SPDF).
 Compute integral first derivatives, UseDBF=F ICtDFT=           0.
 Calling FoFJK, ICntrl=      2127 FMM=F ISym2X=0 I1Cent= 0 IOpClX= 1 NMat=1 NMatS=1 NMatT=0.
 FoFJK:  IHMeth= 1 ICntrl=    2127 DoSepK=F KAlg= 0 I1Cent=           0 FoldK=F
 IRaf=         0 NMat=       1 IRICut=       1 DoRegI=T DoRafI=F ISym2E= 0 IDoP0=0 IntGTp=1.
 FoFCou: FMM=F IPFlag=           0 FMFlag=      100000 FMFlg1=         800
         NFxFlg=           0 DoJE=F BraDBF=F KetDBF=F FulRan=T
         wScrn=  0.000000 ICntrl=      2127 IOpCl=  1 I1Cent=           0 NGrid=           0
         NMat0=    1 NMatS0=      1 NMatT0=    0 NMatD0=    1 NMtDS0=    0 NMtDT0=    0
 Symmetry not used in FoFCou.
 Leave Link  703 at Wed Jan 29 15:46:20 2025, MaxMem=   104857600 cpu:              10.2 elap:              10.2
 (Enter /sw/cluster/pub/apps//g16/l716.exe)
 Dipole        = 6.04316597D-12-6.99520442D-11 8.85215159D-15
 -------------------------------------------------------------------
 Center     Atomic                   Forces (Hartrees/Bohr)
 Number     Number              X              Y              Z
 -------------------------------------------------------------------
      1        6           0.029722026   -0.030859967   -0.000000000
      2        6           0.029722026    0.030859967    0.000000000
      3        6           0.000000000   -0.054160281   -0.000000000
      4        6          -0.029722026    0.030859967    0.000000000
      5        6          -0.029722026   -0.030859967   -0.000000000
      6        6           0.000000000    0.054160281    0.000000000
      7        1           0.001008538   -0.000048704    0.000000000
      8        1           0.001008538    0.000048704   -0.000000000
      9        1          -0.001008538    0.000048704   -0.000000000
     10        1          -0.001008538   -0.000048704    0.000000000
     11        9           0.000000000    0.042750990   -0.000000000
     12        9           0.000000000   -0.042750990    0.000000000
 -------------------------------------------------------------------
 Cartesian Forces:  Max     0.054160281 RMS     0.021646779
 Leave Link  716 at Wed Jan 29 15:46:20 2025, MaxMem=   104857600 cpu:               0.0 elap:               0.0
 (Enter /sw/cluster/pub/apps//g16/l103.exe)

 GradGradGradGradGradGradGradGradGradGradGradGradGradGradGradGradGradGrad
 Berny optimization.
 FormGI is forming the generalized inverse of G from B-inverse, IUseBI=4.
 Internal  Forces:  Max     0.042750990 RMS     0.012920186
 Search for a local minimum.
 Step number   1 out of a maximum of   64
 All quantities printed in internal units (Hartrees-Bohrs-Radians)
 RMS Force = .12920D-01 SwitMx=.10000D-02 MixMth= 1
 Mixed Optimization -- RFO/linear search
 Second derivative matrix not updated -- first step.
 ITU=  0
     Eigenvalues ---    0.02250   0.02251   0.02264   0.02264   0.02278
     Eigenvalues ---    0.02280   0.02307   0.02307   0.02307   0.16000
     Eigenvalues ---    0.16000   0.16000   0.16000   0.22000   0.23008
     Eigenvalues ---    0.24000   0.25000   0.25000   0.35564   0.35564
     Eigenvalues ---    0.35564   0.35564   0.43186   0.43944   0.47329
     Eigenvalues ---    0.48157   0.48473   0.48473   0.56359   0.56359
 RFO step:  Lambda=-1.80763652D-02 EMin= 2.24971908D-02
 Linear search not attempted -- first point.
 Iteration  1 RMS(Cart)=  0.03913041 RMS(Int)=  0.00033526
 Iteration  2 RMS(Cart)=  0.00038692 RMS(Int)=  0.00000011
 Iteration  3 RMS(Cart)=  0.00000016 RMS(Int)=  0.00000000
 ITry= 1 IFail=0 DXMaxC= 1.22D-01 DCOld= 1.00D+10 DXMaxT= 3.00D-01 DXLimC= 3.00D+00 Rises=F
 Variable       Old X    -DE/DX   Delta X   Delta X   Delta X     New X
                                 (Linear)    (Quad)   (Total)
    R1        2.62661  -0.02520   0.00000  -0.05129  -0.05129   2.57532
    R2        2.61438   0.02966   0.00000   0.05899   0.05899   2.67337
    R3        2.04768   0.00084   0.00000   0.00224   0.00224   2.04992
    R4        2.61438   0.02966   0.00000   0.05899   0.05899   2.67337
    R5        2.04768   0.00084   0.00000   0.00224   0.00224   2.04992
    R6        2.61438   0.02966   0.00000   0.05899   0.05899   2.67337
    R7        2.53944  -0.04275   0.00000  -0.07350  -0.07350   2.46594
    R8        2.62661  -0.02520   0.00000  -0.05129  -0.05129   2.57532
    R9        2.04768   0.00084   0.00000   0.00224   0.00224   2.04992
   R10        2.61438   0.02966   0.00000   0.05899   0.05899   2.67337
   R11        2.04768   0.00084   0.00000   0.00224   0.00224   2.04992
   R12        2.53944  -0.04275   0.00000  -0.07350  -0.07350   2.46594
    A1        2.07514  -0.00560   0.00000  -0.02169  -0.02169   2.05346
    A2        2.11712   0.00222   0.00000   0.00759   0.00759   2.12471
    A3        2.09092   0.00338   0.00000   0.01410   0.01410   2.10502
    A4        2.07514  -0.00560   0.00000  -0.02169  -0.02169   2.05346
    A5        2.11712   0.00222   0.00000   0.00759   0.00759   2.12471
    A6        2.09092   0.00338   0.00000   0.01410   0.01410   2.10502
    A7        2.13290   0.01119   0.00000   0.04338   0.04338   2.17628
    A8        2.07514  -0.00560   0.00000  -0.02169  -0.02169   2.05346
    A9        2.07514  -0.00560   0.00000  -0.02169  -0.02169   2.05346
   A10        2.07514  -0.00560   0.00000  -0.02169  -0.02169   2.05346
   A11        2.09092   0.00338   0.00000   0.01410   0.01410   2.10502
   A12        2.11712   0.00222   0.00000   0.00759   0.00759   2.12471
   A13        2.07514  -0.00560   0.00000  -0.02169  -0.02169   2.05346
   A14        2.11712   0.00222   0.00000   0.00759   0.00759   2.12471
   A15        2.09092   0.00338   0.00000   0.01410   0.01410   2.10502
   A16        2.13290   0.01119   0.00000   0.04338   0.04338   2.17628
   A17        2.07514  -0.00560   0.00000  -0.02169  -0.02169   2.05346
   A18        2.07514  -0.00560   0.00000  -0.02169  -0.02169   2.05346
    D1       -0.00000   0.00000   0.00000   0.00000   0.00000   0.00000
    D2        3.14159   0.00000   0.00000   0.00000   0.00000   3.14159
    D3        3.14159   0.00000   0.00000   0.00000   0.00000   3.14159
    D4        0.00000  -0.00000   0.00000  -0.00000  -0.00000   0.00000
    D5        0.00000  -0.00000   0.00000  -0.00000  -0.00000   0.00000
    D6        3.14159  -0.00000   0.00000  -0.00000   0.00000   3.14159
    D7        3.14159   0.00000   0.00000  -0.00000   0.00000   3.14159
    D8        0.00000   0.00000   0.00000   0.00000   0.00000   0.00000
    D9        0.00000  -0.00000   0.00000  -0.00000  -0.00000   0.00000
   D10        3.14159  -0.00000   0.00000  -0.00000   0.00000   3.14159
   D11        3.14159   0.00000   0.00000  -0.00000   0.00000   3.14159
   D12        0.00000   0.00000   0.00000   0.00000   0.00000   0.00000
   D13       -0.00000   0.00000   0.00000   0.00000   0.00000   0.00000
   D14        3.14159  -0.00000   0.00000  -0.00000   0.00000   3.14159
   D15        3.14159   0.00000   0.00000   0.00000   0.00000   3.14159
   D16        0.00000  -0.00000   0.00000  -0.00000  -0.00000   0.00000
   D17        0.00000  -0.00000   0.00000  -0.00000  -0.00000   0.00000
   D18        3.14159  -0.00000   0.00000   0.00000   0.00000   3.14159
   D19        3.14159  -0.00000   0.00000   0.00000   0.00000   3.14159
   D20       -0.00000   0.00000   0.00000   0.00000   0.00000   0.00000
   D21       -0.00000   0.00000   0.00000   0.00000   0.00000   0.00000
   D22        3.14159   0.00000   0.00000   0.00000   0.00000   3.14159
   D23        3.14159  -0.00000   0.00000  -0.00000   0.00000   3.14159
   D24        0.00000  -0.00000   0.00000  -0.00000  -0.00000   0.00000
         Item               Value     Threshold  Converged?
 Maximum Force            0.042751     0.000450     NO 
 RMS     Force            0.012920     0.000300     NO 
 Maximum Displacement     0.121700     0.001800     NO 
 RMS     Displacement     0.039367     0.001200     NO 
 Predicted change in Energy=-9.386667D-03
 Lowest energy point so far.  Saving SCF results.
 GradGradGradGradGradGradGradGradGradGradGradGradGradGradGradGradGradGrad

 Leave Link  103 at Wed Jan 29 15:46:20 2025, MaxMem=   104857600 cpu:               0.0 elap:               0.0
 (Enter /sw/cluster/pub/apps//g16/l202.exe)
                          Input orientation:                          
 ---------------------------------------------------------------------
 Center     Atomic      Atomic             Coordinates (Angstroms)
 Number     Number       Type             X           Y           Z
 ---------------------------------------------------------------------
      1          6           0        1.253079    0.681399   -0.000000
      2          6           0        1.253079   -0.681399    0.000000
      3          6           0        0.000000   -1.338007   -0.000000
      4          6           0       -1.253079   -0.681399    0.000000
      5          6           0       -1.253079    0.681399   -0.000000
      6          6           0       -0.000000    1.338007    0.000000
      7          1           0        2.175648    1.252011    0.000000
      8          1           0        2.175648   -1.252011   -0.000000
      9          1           0       -2.175648   -1.252011   -0.000000
     10          1           0       -2.175648    1.252011    0.000000
     11          9           0        0.000000   -2.642926    0.000000
     12          9           0        0.000000    2.642926   -0.000000
 ---------------------------------------------------------------------
                    Distance matrix (angstroms):
                    1          2          3          4          5
     1  C    0.000000
     2  C    1.362799   0.000000
     3  C    2.376596   1.414688   0.000000
     4  C    2.852727   2.506159   1.414688   0.000000
     5  C    2.506159   2.852727   2.376596   1.362799   0.000000
     6  C    1.414688   2.376596   2.676013   2.376596   1.414688
     7  H    1.084772   2.142244   3.382549   3.936274   3.475884
     8  H    2.142244   1.084772   2.177347   3.475884   3.936274
     9  H    3.936274   3.475884   2.177347   1.084772   2.142244
    10  H    3.475884   3.936274   3.382549   2.142244   1.084772
    11  F    3.552654   2.327616   1.304920   2.327616   3.552654
    12  F    2.327616   3.552654   3.980933   3.552654   2.327616
                    6          7          8          9         10
     6  C    0.000000
     7  H    2.177347   0.000000
     8  H    3.382549   2.504022   0.000000
     9  H    3.382549   5.020349   4.351296   0.000000
    10  H    2.177347   4.351296   5.020349   2.504022   0.000000
    11  F    3.980933   4.461388   2.582265   2.582265   4.461388
    12  F    1.304920   2.582265   4.461388   4.461388   2.582265
                   11         12
    11  F    0.000000
    12  F    5.285853   0.000000
 Symmetry turned off by external request.
 Stoichiometry    C6H4F2(1+,2)
 Framework group  D2H[C2"(FC.CF),SG(C4H4)]
 Deg. of freedom     6
 Full point group                 D2H     NOp   8
 Rotational constants (GHZ):           5.3506480           1.4997206           1.1713935
 Leave Link  202 at Wed Jan 29 15:46:20 2025, MaxMem=   104857600 cpu:               0.0 elap:               0.0
 (Enter /sw/cluster/pub/apps//g16/l301.exe)
 Standard basis: 6-311++G(d,p) (5D, 7F)
 Ernie: Thresh=  0.10000D-02 Tol=  0.10000D-05 Strict=F.
   204 basis functions,   324 primitive gaussians,   212 cartesian basis functions
    29 alpha electrons       28 beta electrons
       nuclear repulsion energy       343.7342433717 Hartrees.
 IExCor= 1009 DFT=T Ex+Corr=PBE1PBE ExCW=0 ScaHFX=  0.250000
 ScaDFX=  0.750000  0.750000  1.000000  1.000000 ScalE2=  1.000000  1.000000
 IRadAn=      5 IRanWt=     -1 IRanGd=            0 ICorTp=0 IEmpDi=  4
 NAtoms=   12 NActive=   12 NUniq=   12 SFac= 1.00D+00 NAtFMM=   60 NAOKFM=F Big=F
 Integral buffers will be    131072 words long.
 Raffenetti 2 integral format.
 Two-electron integral symmetry is turned off.
 Leave Link  301 at Wed Jan 29 15:46:20 2025, MaxMem=   104857600 cpu:               0.0 elap:               0.0
 (Enter /sw/cluster/pub/apps//g16/l302.exe)
 NPDir=0 NMtPBC=     1 NCelOv=     1 NCel=       1 NClECP=     1 NCelD=      1
         NCelK=      1 NCelE2=     1 NClLst=     1 CellRange=     0.0.
 One-electron integrals computed using PRISM.
 NBasis=   204 RedAO= T EigKep=  2.30D-06  NBF=   204
 NBsUse=   204 1.00D-06 EigRej= -1.00D+00 NBFU=   204
 Precomputing XC quadrature grid using
 IXCGrd= 4 IRadAn=           5 IRanWt=          -1 IRanGd=           0 AccXCQ= 0.00D+00.
 Generated NRdTot=       0 NPtTot=           0 NUsed=           0 NTot=          32
 NSgBfM=   212   212   212   212   212 MxSgAt=    12 MxSgA2=    12.
 Leave Link  302 at Wed Jan 29 15:46:20 2025, MaxMem=   104857600 cpu:               0.1 elap:               0.1
 (Enter /sw/cluster/pub/apps//g16/l303.exe)
 DipDrv:  MaxL=1.
 Leave Link  303 at Wed Jan 29 15:46:20 2025, MaxMem=   104857600 cpu:               0.0 elap:               0.0
 (Enter /sw/cluster/pub/apps//g16/l401.exe)
 Initial guess from the checkpoint file:  "1-4-DFB-CAT.chk"
 B after Tr=     0.000000   -0.000000   -0.000000
         Rot=    1.000000   -0.000000   -0.000000    0.000000 Ang=   0.00 deg.
 Guess basis will be translated and rotated to current coordinates.
 JPrj=2 DoOrth=T DoCkMO=T.
 Initial guess <Sx>= 0.0000 <Sy>= 0.0000 <Sz>= 0.5000 <S**2>= 0.7608 S= 0.5054
 Generating alternative initial guess.
 ExpMin= 3.60D-02 ExpMax= 1.14D+04 ExpMxC= 1.72D+03 IAcc=3 IRadAn=         5 AccDes= 0.00D+00
 Harris functional with IExCor= 1009 and IRadAn=       5 diagonalized for initial guess.
 HarFok:  IExCor= 1009 AccDes= 0.00D+00 IRadAn=         5 IDoV= 1 UseB2=F ITyADJ=14
 ICtDFT=  3500011 ScaDFX=  1.000000  1.000000  1.000000  1.000000
 FoFCou: FMM=F IPFlag=           0 FMFlag=      100000 FMFlg1=           0
         NFxFlg=           0 DoJE=T BraDBF=F KetDBF=T FulRan=T
         wScrn=  0.000000 ICntrl=       500 IOpCl=  0 I1Cent=   200000004 NGrid=           0
         NMat0=    1 NMatS0=      1 NMatT0=    0 NMatD0=    1 NMtDS0=    0 NMtDT0=    0
 Symmetry not used in FoFCou.
 Harris En= -430.142602961010    
 Leave Link  401 at Wed Jan 29 15:46:22 2025, MaxMem=   104857600 cpu:               1.3 elap:               1.3
 (Enter /sw/cluster/pub/apps//g16/l502.exe)
 Two-electron integral symmetry not used.
 UHF open shell SCF:
 Using DIIS extrapolation, IDIIS=  1040.
 NGot=   104857600 LenX=   104764860 LenY=   104719475
 Requested convergence on RMS density matrix=1.00D-08 within 128 cycles.
 Requested convergence on MAX density matrix=1.00D-06.
 Requested convergence on             energy=1.00D-06.
 No special actions if energy rises.
 Fock matrices will be formed incrementally for  20 cycles.

 Cycle   1  Pass 1  IDiag  1:
 FoFJK:  IHMeth= 1 ICntrl=       0 DoSepK=F KAlg= 0 I1Cent=           0 FoldK=F
 IRaf= 970000000 NMat=       1 IRICut=       1 DoRegI=T DoRafI=F ISym2E= 0 IDoP0=0 IntGTp=1.
 FoFCou: FMM=F IPFlag=           0 FMFlag=      100000 FMFlg1=           0
         NFxFlg=           0 DoJE=F BraDBF=F KetDBF=F FulRan=T
         wScrn=  0.000000 ICntrl=         0 IOpCl=  1 I1Cent=           0 NGrid=           0
         NMat0=    1 NMatS0=      1 NMatT0=    0 NMatD0=    1 NMtDS0=    0 NMtDT0=    0
 Symmetry not used in FoFCou.
 E= -430.040427889793    
 DIIS: error= 5.21D-03 at cycle   1 NSaved=   1.
 NSaved= 1 IEnMin= 1 EnMin= -430.040427889793     IErMin= 1 ErrMin= 5.21D-03
 ErrMax= 5.21D-03  0.00D+00 EMaxC= 1.00D-01 BMatC= 1.82D-02 BMatP= 1.82D-02
 IDIUse=3 WtCom= 9.48D-01 WtEn= 5.21D-02
 Coeff-Com:  0.100D+01
 Coeff-En:   0.100D+01
 Coeff:      0.100D+01
 Gap=     0.468 Goal=   None    Shift=    0.000
 Gap=     0.489 Goal=   None    Shift=    0.000
 GapD=    0.468 DampG=2.000 DampE=1.000 DampFc=2.0000 IDamp=-1.
 RMSDP=3.70D-03 MaxDP=1.48D-01              OVMax= 2.43D-02

 Cycle   2  Pass 1  IDiag  1:
 RMSU=  2.65D-03    CP:  9.37D-01
 E= -430.045760007457     Delta-E=       -0.005332117664 Rises=F Damp=F
 DIIS: error= 1.37D-03 at cycle   2 NSaved=   2.
 NSaved= 2 IEnMin= 2 EnMin= -430.045760007457     IErMin= 2 ErrMin= 1.37D-03
 ErrMax= 1.37D-03  0.00D+00 EMaxC= 1.00D-01 BMatC= 9.21D-04 BMatP= 1.82D-02
 IDIUse=3 WtCom= 9.86D-01 WtEn= 1.37D-02
 Coeff-Com:  0.398D-01 0.960D+00
 Coeff-En:   0.000D+00 0.100D+01
 Coeff:      0.393D-01 0.961D+00
 Gap=     0.244 Goal=   None    Shift=    0.000
 Gap=     0.115 Goal=   None    Shift=    0.000
 RMSDP=4.47D-04 MaxDP=1.92D-02 DE=-5.33D-03 OVMax= 8.65D-03

 Cycle   3  Pass 1  IDiag  1:
 RMSU=  4.16D-04    CP:  9.33D-01  1.02D+00
 E= -430.045757979547     Delta-E=        0.000002027910 Rises=F Damp=F
 DIIS: error= 1.29D-03 at cycle   3 NSaved=   3.
 NSaved= 3 IEnMin= 2 EnMin= -430.045760007457     IErMin= 3 ErrMin= 1.29D-03
 ErrMax= 1.29D-03  0.00D+00 EMaxC= 1.00D-01 BMatC= 9.51D-04 BMatP= 9.21D-04
 IDIUse=3 WtCom= 9.87D-01 WtEn= 1.29D-02
 Coeff-Com: -0.110D-01 0.509D+00 0.502D+00
 Coeff-En:   0.000D+00 0.503D+00 0.497D+00
 Coeff:     -0.109D-01 0.509D+00 0.502D+00
 Gap=     0.243 Goal=   None    Shift=    0.000
 Gap=     0.119 Goal=   None    Shift=    0.000
 RMSDP=1.12D-04 MaxDP=3.06D-03 DE= 2.03D-06 OVMax= 5.70D-03

 Cycle   4  Pass 1  IDiag  1:
 RMSU=  7.65D-05    CP:  9.32D-01  1.01D+00  8.30D-01
 E= -430.045966050636     Delta-E=       -0.000208071089 Rises=F Damp=F
 DIIS: error= 2.88D-04 at cycle   4 NSaved=   4.
 NSaved= 4 IEnMin= 4 EnMin= -430.045966050636     IErMin= 4 ErrMin= 2.88D-04
 ErrMax= 2.88D-04  0.00D+00 EMaxC= 1.00D-01 BMatC= 2.73D-05 BMatP= 9.21D-04
 IDIUse=3 WtCom= 9.97D-01 WtEn= 2.88D-03
 Coeff-Com: -0.790D-02 0.133D+00 0.197D+00 0.678D+00
 Coeff-En:   0.000D+00 0.000D+00 0.000D+00 0.100D+01
 Coeff:     -0.788D-02 0.133D+00 0.196D+00 0.679D+00
 Gap=     0.243 Goal=   None    Shift=    0.000
 Gap=     0.119 Goal=   None    Shift=    0.000
 RMSDP=2.75D-05 MaxDP=1.29D-03 DE=-2.08D-04 OVMax= 1.19D-03

 Cycle   5  Pass 1  IDiag  1:
 RMSU=  1.59D-05    CP:  9.32D-01  1.01D+00  7.94D-01  8.40D-01
 E= -430.045969638593     Delta-E=       -0.000003587957 Rises=F Damp=F
 DIIS: error= 1.43D-04 at cycle   5 NSaved=   5.
 NSaved= 5 IEnMin= 5 EnMin= -430.045969638593     IErMin= 5 ErrMin= 1.43D-04
 ErrMax= 1.43D-04  0.00D+00 EMaxC= 1.00D-01 BMatC= 6.39D-06 BMatP= 2.73D-05
 IDIUse=3 WtCom= 9.99D-01 WtEn= 1.43D-03
 Coeff-Com: -0.404D-02 0.512D-01 0.902D-01 0.415D+00 0.447D+00
 Coeff-En:   0.000D+00 0.000D+00 0.000D+00 0.103D+00 0.897D+00
 Coeff:     -0.404D-02 0.511D-01 0.901D-01 0.415D+00 0.448D+00
 Gap=     0.243 Goal=   None    Shift=    0.000
 Gap=     0.119 Goal=   None    Shift=    0.000
 RMSDP=1.55D-05 MaxDP=4.74D-04 DE=-3.59D-06 OVMax= 3.03D-04

 Cycle   6  Pass 1  IDiag  1:
 RMSU=  1.04D-05    CP:  9.32D-01  1.01D+00  7.72D-01  8.40D-01  9.10D-01
 E= -430.045970716451     Delta-E=       -0.000001077858 Rises=F Damp=F
 DIIS: error= 2.19D-05 at cycle   6 NSaved=   6.
 NSaved= 6 IEnMin= 6 EnMin= -430.045970716451     IErMin= 6 ErrMin= 2.19D-05
 ErrMax= 2.19D-05  0.00D+00 EMaxC= 1.00D-01 BMatC= 9.41D-08 BMatP= 6.39D-06
 IDIUse=1 WtCom= 1.00D+00 WtEn= 0.00D+00
 Coeff-Com:  0.129D-03-0.685D-02-0.467D-02 0.150D-01 0.827D-01 0.914D+00
 Coeff:      0.129D-03-0.685D-02-0.467D-02 0.150D-01 0.827D-01 0.914D+00
 Gap=     0.243 Goal=   None    Shift=    0.000
 Gap=     0.119 Goal=   None    Shift=    0.000
 RMSDP=2.56D-06 MaxDP=8.20D-05 DE=-1.08D-06 OVMax= 1.48D-04

 Cycle   7  Pass 1  IDiag  1:
 RMSU=  1.35D-06    CP:  9.32D-01  1.01D+00  7.73D-01  8.48D-01  9.40D-01
                    CP:  1.05D+00
 E= -430.045970758164     Delta-E=       -0.000000041714 Rises=F Damp=F
 DIIS: error= 6.43D-06 at cycle   7 NSaved=   7.
 NSaved= 7 IEnMin= 7 EnMin= -430.045970758164     IErMin= 7 ErrMin= 6.43D-06
 ErrMax= 6.43D-06  0.00D+00 EMaxC= 1.00D-01 BMatC= 1.41D-08 BMatP= 9.41D-08
 IDIUse=1 WtCom= 1.00D+00 WtEn= 0.00D+00
 Coeff-Com:  0.298D-03-0.451D-02-0.698D-02-0.252D-01-0.202D-01 0.163D+00
 Coeff-Com:  0.894D+00
 Coeff:      0.298D-03-0.451D-02-0.698D-02-0.252D-01-0.202D-01 0.163D+00
 Coeff:      0.894D+00
 Gap=     0.243 Goal=   None    Shift=    0.000
 Gap=     0.119 Goal=   None    Shift=    0.000
 RMSDP=1.04D-06 MaxDP=4.47D-05 DE=-4.17D-08 OVMax= 5.33D-05

 Cycle   8  Pass 1  IDiag  1:
 RMSU=  6.85D-07    CP:  9.32D-01  1.01D+00  7.72D-01  8.48D-01  9.57D-01
                    CP:  1.07D+00  1.07D+00
 E= -430.045970765278     Delta-E=       -0.000000007113 Rises=F Damp=F
 DIIS: error= 2.57D-06 at cycle   8 NSaved=   8.
 NSaved= 8 IEnMin= 8 EnMin= -430.045970765278     IErMin= 8 ErrMin= 2.57D-06
 ErrMax= 2.57D-06  0.00D+00 EMaxC= 1.00D-01 BMatC= 3.24D-09 BMatP= 1.41D-08
 IDIUse=1 WtCom= 1.00D+00 WtEn= 0.00D+00
 Coeff-Com:  0.222D-04 0.703D-03-0.699D-03-0.772D-02-0.272D-01-0.160D+00
 Coeff-Com:  0.218D+00 0.976D+00
 Coeff:      0.222D-04 0.703D-03-0.699D-03-0.772D-02-0.272D-01-0.160D+00
 Coeff:      0.218D+00 0.976D+00
 Gap=     0.243 Goal=   None    Shift=    0.000
 Gap=     0.119 Goal=   None    Shift=    0.000
 RMSDP=6.62D-07 MaxDP=2.16D-05 DE=-7.11D-09 OVMax= 2.55D-05

 Cycle   9  Pass 1  IDiag  1:
 RMSU=  2.67D-07    CP:  9.32D-01  1.01D+00  7.71D-01  8.48D-01  9.57D-01
                    CP:  1.10D+00  1.28D+00  1.19D+00
 E= -430.045970766958     Delta-E=       -0.000000001681 Rises=F Damp=F
 DIIS: error= 5.62D-07 at cycle   9 NSaved=   9.
 NSaved= 9 IEnMin= 9 EnMin= -430.045970766958     IErMin= 9 ErrMin= 5.62D-07
 ErrMax= 5.62D-07  0.00D+00 EMaxC= 1.00D-01 BMatC= 1.32D-10 BMatP= 3.24D-09
 IDIUse=1 WtCom= 1.00D+00 WtEn= 0.00D+00
 Coeff-Com: -0.156D-04 0.473D-03 0.350D-03 0.760D-03-0.312D-02-0.421D-01
 Coeff-Com: -0.305D-01 0.187D+00 0.887D+00
 Coeff:     -0.156D-04 0.473D-03 0.350D-03 0.760D-03-0.312D-02-0.421D-01
 Coeff:     -0.305D-01 0.187D+00 0.887D+00
 Gap=     0.243 Goal=   None    Shift=    0.000
 Gap=     0.119 Goal=   None    Shift=    0.000
 RMSDP=1.39D-07 MaxDP=6.20D-06 DE=-1.68D-09 OVMax= 4.50D-06

 Cycle  10  Pass 1  IDiag  1:
 RMSU=  6.69D-08    CP:  9.32D-01  1.01D+00  7.71D-01  8.49D-01  9.56D-01
                    CP:  1.09D+00  1.32D+00  1.30D+00  1.20D+00
 E= -430.045970767012     Delta-E=       -0.000000000054 Rises=F Damp=F
 DIIS: error= 1.71D-07 at cycle  10 NSaved=  10.
 NSaved=10 IEnMin=10 EnMin= -430.045970767012     IErMin=10 ErrMin= 1.71D-07
 ErrMax= 1.71D-07  0.00D+00 EMaxC= 1.00D-01 BMatC= 5.17D-12 BMatP= 1.32D-10
 IDIUse=1 WtCom= 1.00D+00 WtEn= 0.00D+00
 Coeff-Com: -0.158D-05-0.245D-04 0.288D-04 0.462D-03 0.113D-02 0.736D-02
 Coeff-Com: -0.117D-01-0.471D-01 0.334D-01 0.102D+01
 Coeff:     -0.158D-05-0.245D-04 0.288D-04 0.462D-03 0.113D-02 0.736D-02
 Coeff:     -0.117D-01-0.471D-01 0.334D-01 0.102D+01
 Gap=     0.243 Goal=   None    Shift=    0.000
 Gap=     0.119 Goal=   None    Shift=    0.000
 RMSDP=4.58D-08 MaxDP=2.08D-06 DE=-5.39D-11 OVMax= 5.73D-07

 Cycle  11  Pass 1  IDiag  1:
 RMSU=  1.63D-08    CP:  9.32D-01  1.01D+00  7.71D-01  8.49D-01  9.56D-01
                    CP:  1.09D+00  1.33D+00  1.33D+00  1.31D+00  1.21D+00
 E= -430.045970767015     Delta-E=       -0.000000000003 Rises=F Damp=F
 DIIS: error= 4.39D-08 at cycle  11 NSaved=  11.
 NSaved=11 IEnMin=11 EnMin= -430.045970767015     IErMin=11 ErrMin= 4.39D-08
 ErrMax= 4.39D-08  0.00D+00 EMaxC= 1.00D-01 BMatC= 2.59D-13 BMatP= 5.17D-12
 IDIUse=1 WtCom= 1.00D+00 WtEn= 0.00D+00
 Coeff-Com:  0.781D-06-0.209D-04-0.151D-04-0.720D-04 0.155D-03 0.142D-02
 Coeff-Com:  0.278D-02-0.508D-02-0.499D-01-0.974D-01 0.115D+01
 Coeff:      0.781D-06-0.209D-04-0.151D-04-0.720D-04 0.155D-03 0.142D-02
 Coeff:      0.278D-02-0.508D-02-0.499D-01-0.974D-01 0.115D+01
 Gap=     0.243 Goal=   None    Shift=    0.000
 Gap=     0.119 Goal=   None    Shift=    0.000
 RMSDP=1.38D-08 MaxDP=5.29D-07 DE=-2.50D-12 OVMax= 1.56D-07

 Cycle  12  Pass 1  IDiag  1:
 RMSU=  2.23D-09    CP:  9.32D-01  1.01D+00  7.71D-01  8.49D-01  9.56D-01
                    CP:  1.09D+00  1.33D+00  1.34D+00  1.34D+00  1.30D+00
                    CP:  1.25D+00
 E= -430.045970767015     Delta-E=       -0.000000000000 Rises=F Damp=F
 DIIS: error= 7.74D-09 at cycle  12 NSaved=  12.
 NSaved=12 IEnMin=12 EnMin= -430.045970767015     IErMin=12 ErrMin= 7.74D-09
 ErrMax= 7.74D-09  0.00D+00 EMaxC= 1.00D-01 BMatC= 1.08D-14 BMatP= 2.59D-13
 IDIUse=1 WtCom= 1.00D+00 WtEn= 0.00D+00
 Coeff-Com:  0.171D-06-0.157D-05-0.263D-05-0.308D-04-0.219D-04-0.151D-03
 Coeff-Com:  0.633D-03 0.136D-02-0.462D-02-0.421D-01 0.670D-01 0.978D+00
 Coeff:      0.171D-06-0.157D-05-0.263D-05-0.308D-04-0.219D-04-0.151D-03
 Coeff:      0.633D-03 0.136D-02-0.462D-02-0.421D-01 0.670D-01 0.978D+00
 Gap=     0.243 Goal=   None    Shift=    0.000
 Gap=     0.119 Goal=   None    Shift=    0.000
 RMSDP=1.73D-09 MaxDP=7.63D-08 DE=-3.41D-13 OVMax= 2.77D-08

 SCF Done:  E(UPBE1PBE) =  -430.045970767     A.U. after   12 cycles
            NFock= 12  Conv=0.17D-08     -V/T= 2.0031
 <Sx>= 0.0000 <Sy>= 0.0000 <Sz>= 0.5000 <S**2>= 0.7612 S= 0.5056
 <L.S>=  0.00000000000    
 KE= 4.287275609343D+02 PE=-1.686402417934D+03 EE= 4.838946428613D+02
 Annihilation of the first spin contaminant:
 S**2 before annihilation     0.7612,   after     0.7500
 Leave Link  502 at Wed Jan 29 15:47:08 2025, MaxMem=   104857600 cpu:              46.2 elap:              46.3
 (Enter /sw/cluster/pub/apps//g16/l701.exe)
 ... and contract with generalized density number  0.
 Compute integral first derivatives.
 Leave Link  701 at Wed Jan 29 15:47:08 2025, MaxMem=   104857600 cpu:               0.1 elap:               0.0
 (Enter /sw/cluster/pub/apps//g16/l702.exe)
 L702 exits ... SP integral derivatives will be done elsewhere.
 Leave Link  702 at Wed Jan 29 15:47:08 2025, MaxMem=   104857600 cpu:               0.0 elap:               0.0
 (Enter /sw/cluster/pub/apps//g16/l703.exe)
 Integral derivatives from FoFJK, PRISM(SPDF).
 Compute integral first derivatives, UseDBF=F ICtDFT=           0.
 Calling FoFJK, ICntrl=      2127 FMM=F ISym2X=0 I1Cent= 0 IOpClX= 1 NMat=1 NMatS=1 NMatT=0.
 FoFJK:  IHMeth= 1 ICntrl=    2127 DoSepK=F KAlg= 0 I1Cent=           0 FoldK=F
 IRaf=         0 NMat=       1 IRICut=       1 DoRegI=T DoRafI=F ISym2E= 0 IDoP0=0 IntGTp=1.
 FoFCou: FMM=F IPFlag=           0 FMFlag=      100000 FMFlg1=         800
         NFxFlg=           0 DoJE=F BraDBF=F KetDBF=F FulRan=T
         wScrn=  0.000000 ICntrl=      2127 IOpCl=  1 I1Cent=           0 NGrid=           0
         NMat0=    1 NMatS0=      1 NMatT0=    0 NMatD0=    1 NMtDS0=    0 NMtDT0=    0
 Symmetry not used in FoFCou.
 Leave Link  703 at Wed Jan 29 15:47:18 2025, MaxMem=   104857600 cpu:               9.9 elap:               9.9
 (Enter /sw/cluster/pub/apps//g16/l716.exe)
 Dipole        = 3.60630852D-11-1.52475721D-09 4.88986477D-14
 -------------------------------------------------------------------
 Center     Atomic                   Forces (Hartrees/Bohr)
 Number     Number              X              Y              Z
 -------------------------------------------------------------------
      1        6           0.001918144   -0.004218812    0.000000000
      2        6           0.001918144    0.004218812   -0.000000000
      3        6           0.000000000   -0.019069255    0.000000000
      4        6          -0.001918144    0.004218812   -0.000000000
      5        6          -0.001918144   -0.004218812    0.000000000
      6        6           0.000000000    0.019069255   -0.000000000
      7        1          -0.001594926    0.001996187   -0.000000000
      8        1          -0.001594926   -0.001996187    0.000000000
      9        1           0.001594926   -0.001996187    0.000000000
     10        1           0.001594926    0.001996187   -0.000000000
     11        9          -0.000000000    0.009865018   -0.000000000
     12        9          -0.000000000   -0.009865018    0.000000000
 -------------------------------------------------------------------
 Cartesian Forces:  Max     0.019069255 RMS     0.005359143
 Leave Link  716 at Wed Jan 29 15:47:18 2025, MaxMem=   104857600 cpu:               0.0 elap:               0.0
 (Enter /sw/cluster/pub/apps//g16/l103.exe)

 GradGradGradGradGradGradGradGradGradGradGradGradGradGradGradGradGradGrad
 Berny optimization.
 Using GEDIIS/GDIIS optimizer.
 FormGI is forming the generalized inverse of G from B-inverse, IUseBI=4.
 Internal  Forces:  Max     0.009865018 RMS     0.002506713
 Search for a local minimum.
 Step number   2 out of a maximum of   64
 All quantities printed in internal units (Hartrees-Bohrs-Radians)
 RMS Force = .25067D-02 SwitMx=.10000D-02 MixMth= 1
 Mixed Optimization -- RFO/linear search
 Update second derivatives using D2CorX and points    1    2
 DE= -9.56D-03 DEPred=-9.39D-03 R= 1.02D+00
 TightC=F SS=  1.41D+00  RLast= 1.96D-01 DXNew= 5.0454D-01 5.8908D-01
 Trust test= 1.02D+00 RLast= 1.96D-01 DXMaxT set to 5.05D-01
 ITU=  1  0
 Use linear search instead of GDIIS.
     Eigenvalues ---    0.02250   0.02252   0.02264   0.02264   0.02278
     Eigenvalues ---    0.02282   0.02307   0.02307   0.02307   0.15930
     Eigenvalues ---    0.16000   0.16000   0.16000   0.22000   0.23006
     Eigenvalues ---    0.25000   0.25000   0.26177   0.35564   0.35564
     Eigenvalues ---    0.35564   0.35573   0.43499   0.43712   0.44279
     Eigenvalues ---    0.48179   0.48473   0.49362   0.53442   0.56359
 RFO step:  Lambda=-1.04297241D-03 EMin= 2.24979987D-02
 Quartic linear search produced a step of  0.05967.
[...]
    R5        2.04962   0.00004   0.00000   0.00012   0.00012   2.04974
    R6        2.68250  -0.00008   0.00000  -0.00019  -0.00019   2.68232
    R7        2.44167   0.00011   0.00000   0.00016   0.00016   2.44183
    R8        2.57457   0.00008   0.00000   0.00010   0.00010   2.57466
    R9        2.04962   0.00004   0.00000   0.00012   0.00012   2.04974
   R10        2.68250  -0.00008   0.00000  -0.00019  -0.00019   2.68232
   R11        2.04962   0.00004   0.00000   0.00012   0.00012   2.04974
   R12        2.44167   0.00011   0.00000   0.00016   0.00016   2.44183
    A1        2.06250   0.00005   0.00000   0.00020   0.00020   2.06270
    A2        2.14081  -0.00000   0.00000  -0.00004  -0.00004   2.14077
    A3        2.07988  -0.00004   0.00000  -0.00016  -0.00016   2.07972
    A4        2.06250   0.00005   0.00000   0.00020   0.00020   2.06270
    A5        2.14081  -0.00000   0.00000  -0.00004  -0.00004   2.14077
    A6        2.07988  -0.00004   0.00000  -0.00016  -0.00016   2.07972
    A7        2.15819  -0.00010   0.00000  -0.00040  -0.00040   2.15779
    A8        2.06250   0.00005   0.00000   0.00020   0.00020   2.06270
    A9        2.06250   0.00005   0.00000   0.00020   0.00020   2.06270
   A10        2.06250   0.00005   0.00000   0.00020   0.00020   2.06270
   A11        2.07988  -0.00004   0.00000  -0.00016  -0.00016   2.07972
   A12        2.14081  -0.00000   0.00000  -0.00004  -0.00004   2.14077
   A13        2.06250   0.00005   0.00000   0.00020   0.00020   2.06270
   A14        2.14081  -0.00000   0.00000  -0.00004  -0.00004   2.14077
   A15        2.07988  -0.00004   0.00000  -0.00016  -0.00016   2.07972
   A16        2.15819  -0.00010   0.00000  -0.00040  -0.00040   2.15779
   A17        2.06250   0.00005   0.00000   0.00020   0.00020   2.06270
   A18        2.06250   0.00005   0.00000   0.00020   0.00020   2.06270
    D1       -0.00000  -0.00000   0.00000   0.00000   0.00000   0.00000
    D2        3.14159  -0.00000   0.00000  -0.00000   0.00000   3.14159
    D3        3.14159  -0.00000   0.00000  -0.00000   0.00000   3.14159
    D4        0.00000  -0.00000   0.00000  -0.00000  -0.00000   0.00000
    D5       -0.00000   0.00000   0.00000   0.00000   0.00000   0.00000
    D6        3.14159  -0.00000   0.00000  -0.00000   0.00000   3.14159
    D7        3.14159   0.00000   0.00000   0.00000   0.00000   3.14159
    D8        0.00000  -0.00000   0.00000  -0.00000  -0.00000   0.00000
    D9       -0.00000   0.00000   0.00000   0.00000   0.00000   0.00000
   D10        3.14159  -0.00000   0.00000  -0.00000   0.00000   3.14159
   D11        3.14159   0.00000   0.00000   0.00000   0.00000   3.14159
   D12        0.00000  -0.00000   0.00000  -0.00000  -0.00000   0.00000
   D13        0.00000  -0.00000   0.00000  -0.00000  -0.00000   0.00000
   D14        3.14159  -0.00000   0.00000  -0.00000   0.00000   3.14159
   D15        3.14159   0.00000   0.00000   0.00000   0.00000   3.14159
   D16       -0.00000   0.00000   0.00000   0.00000   0.00000   0.00000
   D17       -0.00000   0.00000   0.00000   0.00000   0.00000   0.00000
   D18        3.14159   0.00000   0.00000   0.00000   0.00000   3.14159
   D19        3.14159   0.00000   0.00000   0.00000   0.00000   3.14159
   D20        0.00000   0.00000   0.00000  -0.00000  -0.00000   0.00000
   D21        0.00000  -0.00000   0.00000  -0.00000  -0.00000   0.00000
   D22        3.14159   0.00000   0.00000   0.00000   0.00000   3.14159
   D23        3.14159  -0.00000   0.00000  -0.00000   0.00000   3.14159
   D24       -0.00000   0.00000   0.00000   0.00000   0.00000   0.00000
         Item               Value     Threshold  Converged?
 Maximum Force            0.000114     0.000450     YES
 RMS     Force            0.000047     0.000300     YES
 Maximum Displacement     0.000592     0.001800     YES
 RMS     Displacement     0.000196     0.001200     YES
 Predicted change in Energy=-1.589915D-07
 Optimization completed.
    -- Stationary point found.
                           ----------------------------
                           !   Optimized Parameters   !
                           ! (Angstroms and Degrees)  !
 --------------------------                            --------------------------
 ! Name  Definition              Value          Derivative Info.                !
 --------------------------------------------------------------------------------
 ! R1    R(1,2)                  1.3624         -DE/DX =    0.0001              !
 ! R2    R(1,6)                  1.4195         -DE/DX =   -0.0001              !
 ! R3    R(1,7)                  1.0846         -DE/DX =    0.0                 !
 ! R4    R(2,3)                  1.4195         -DE/DX =   -0.0001              !
 ! R5    R(2,8)                  1.0846         -DE/DX =    0.0                 !
 ! R6    R(3,4)                  1.4195         -DE/DX =   -0.0001              !
 ! R7    R(3,11)                 1.2921         -DE/DX =    0.0001              !
 ! R8    R(4,5)                  1.3624         -DE/DX =    0.0001              !
 ! R9    R(4,9)                  1.0846         -DE/DX =    0.0                 !
 ! R10   R(5,6)                  1.4195         -DE/DX =   -0.0001              !
 ! R11   R(5,10)                 1.0846         -DE/DX =    0.0                 !
 ! R12   R(6,12)                 1.2921         -DE/DX =    0.0001              !
 ! A1    A(2,1,6)              118.1723         -DE/DX =    0.0                 !
 ! A2    A(2,1,7)              122.6594         -DE/DX =    0.0                 !
 ! A3    A(6,1,7)              119.1682         -DE/DX =    0.0                 !
 ! A4    A(1,2,3)              118.1723         -DE/DX =    0.0                 !
 ! A5    A(1,2,8)              122.6594         -DE/DX =    0.0                 !
 ! A6    A(3,2,8)              119.1682         -DE/DX =    0.0                 !
 ! A7    A(2,3,4)              123.6553         -DE/DX =   -0.0001              !
 ! A8    A(2,3,11)             118.1723         -DE/DX =    0.0                 !
 ! A9    A(4,3,11)             118.1723         -DE/DX =    0.0                 !
 ! A10   A(3,4,5)              118.1723         -DE/DX =    0.0                 !
 ! A11   A(3,4,9)              119.1682         -DE/DX =    0.0                 !
 ! A12   A(5,4,9)              122.6594         -DE/DX =    0.0                 !
 ! A13   A(4,5,6)              118.1723         -DE/DX =    0.0                 !
 ! A14   A(4,5,10)             122.6594         -DE/DX =    0.0                 !
 ! A15   A(6,5,10)             119.1682         -DE/DX =    0.0                 !
 ! A16   A(1,6,5)              123.6553         -DE/DX =   -0.0001              !
 ! A17   A(1,6,12)             118.1723         -DE/DX =    0.0                 !
 ! A18   A(5,6,12)             118.1723         -DE/DX =    0.0                 !
 ! D1    D(6,1,2,3)              0.0            -DE/DX =    0.0                 !
 ! D2    D(6,1,2,8)            180.0            -DE/DX =    0.0                 !
 ! D3    D(7,1,2,3)            180.0            -DE/DX =    0.0                 !
 ! D4    D(7,1,2,8)              0.0            -DE/DX =    0.0                 !
 ! D5    D(2,1,6,5)              0.0            -DE/DX =    0.0                 !
 ! D6    D(2,1,6,12)           180.0            -DE/DX =    0.0                 !
 ! D7    D(7,1,6,5)            180.0            -DE/DX =    0.0                 !
 ! D8    D(7,1,6,12)             0.0            -DE/DX =    0.0                 !
 ! D9    D(1,2,3,4)              0.0            -DE/DX =    0.0                 !
 ! D10   D(1,2,3,11)           180.0            -DE/DX =    0.0                 !
 ! D11   D(8,2,3,4)            180.0            -DE/DX =    0.0                 !
 ! D12   D(8,2,3,11)             0.0            -DE/DX =    0.0                 !
 ! D13   D(2,3,4,5)              0.0            -DE/DX =    0.0                 !
 ! D14   D(2,3,4,9)            180.0            -DE/DX =    0.0                 !
 ! D15   D(11,3,4,5)           180.0            -DE/DX =    0.0                 !
 ! D16   D(11,3,4,9)             0.0            -DE/DX =    0.0                 !
 ! D17   D(3,4,5,6)              0.0            -DE/DX =    0.0                 !
 ! D18   D(3,4,5,10)           180.0            -DE/DX =    0.0                 !
 ! D19   D(9,4,5,6)            180.0            -DE/DX =    0.0                 !
 ! D20   D(9,4,5,10)             0.0            -DE/DX =    0.0                 !
 ! D21   D(4,5,6,1)              0.0            -DE/DX =    0.0                 !
 ! D22   D(4,5,6,12)           180.0            -DE/DX =    0.0                 !
 ! D23   D(10,5,6,1)           180.0            -DE/DX =    0.0                 !
 ! D24   D(10,5,6,12)            0.0            -DE/DX =    0.0                 !
 --------------------------------------------------------------------------------
 GradGradGradGradGradGradGradGradGradGradGradGradGradGradGradGradGradGrad

 Leave Link  103 at Wed Jan 29 15:55:06 2025, MaxMem=   104857600 cpu:               0.0 elap:               0.0
 (Enter /sw/cluster/pub/apps//g16/l9999.exe)

 ----------------------------------------------------------------------

 Electric dipole moment (input orientation):
 (Debye = 10**-18 statcoulomb cm , SI units = C m)
                  (au)            (Debye)         (10**-30 SI)
   Tot        0.000000D+00      0.000000D+00      0.000000D+00
   x          0.000000D+00      0.000000D+00      0.000000D+00
   y          0.000000D+00      0.000000D+00      0.000000D+00
   z          0.000000D+00      0.000000D+00      0.000000D+00

 Dipole polarizability, Alpha (input orientation).
 (esu units = cm**3 , SI units = C**2 m**2 J**-1)
 Alpha(0;0):
               (au)            (10**-24 esu)      (10**-40 SI)
   iso        0.619960D+02      0.918686D+01      0.102218D+02
   aniso      0.487521D+02      0.722431D+01      0.803813D+01
   xx         0.658969D+02      0.976491D+01      0.108649D+02
   yx         0.000000D+00      0.000000D+00      0.000000D+00
   yy         0.879891D+02      0.130386D+02      0.145074D+02
   zx         0.000000D+00      0.000000D+00      0.000000D+00
   zy         0.000000D+00      0.000000D+00      0.000000D+00
   zz         0.321020D+02      0.475702D+01      0.529290D+01

 ----------------------------------------------------------------------

 Dipole orientation:
     6          2.36383793         -0.00160049          1.28888739
     6          2.36558476         -0.00160841         -1.28567848
     6          0.00173272         -0.00000785         -2.55376029
     6         -2.36383793          0.00160049         -1.28888739
     6         -2.36558476          0.00160841          1.28567848
     6         -0.00173272          0.00000785          2.55376029
     1          4.08864712         -0.00276787          2.39612354
     1          4.09189488         -0.00278260         -2.39057305
     1         -4.08864712          0.00276787         -2.39612354
     1         -4.09189488          0.00278260          2.39057305
     9          0.00338938         -0.00001537         -4.99543190
     9         -0.00338938          0.00001537          4.99543190

 Electric dipole moment (dipole orientation):
 (Debye = 10**-18 statcoulomb cm , SI units = C m)
                  (au)            (Debye)         (10**-30 SI)
   Tot        0.000000D+00      0.000000D+00      0.000000D+00
   x          0.000000D+00      0.000000D+00      0.000000D+00
   y          0.000000D+00      0.000000D+00      0.000000D+00
   z          0.000000D+00      0.000000D+00      0.000000D+00

 Dipole polarizability, Alpha (dipole orientation).
 (esu units = cm**3 , SI units = C**2 m**2 J**-1)
 Alpha(0;0):
               (au)            (10**-24 esu)      (10**-40 SI)
   iso        0.619960D+02      0.918686D+01      0.102218D+02
   aniso      0.487521D+02      0.722431D+01      0.803813D+01
   xx         0.658969D+02      0.976491D+01      0.108649D+02
   yx        -0.229298D-01     -0.339785D-02     -0.378061D-02
   yy         0.321020D+02      0.475703D+01      0.529291D+01
   zx        -0.149893D-01     -0.222119D-02     -0.247141D-02
   zy         0.156365D-03      0.231709D-04      0.257811D-04
   zz         0.879891D+02      0.130386D+02      0.145074D+02

 ----------------------------------------------------------------------
 1\1\GINC-N02\Freq\UPBE1PBE\6-311++G(d,p)\C6H4F2(1+,2)\UNKNOWN\29-Jan-2
 025\0\\#P Geom=AllCheck Guess=TCheck SCRF=Check GenChk UPBE1PBE/6-311+
 +G(d,p) Freq\\1 4-DFB SP\\1,2\C,1.2513519316,0.6812009511,0.0000000012
 \C,1.2513519313,-0.6812009512,-0.0000000012\C,0.,-1.3513920598,-0.0000
 000022\C,-1.2513519313,-0.6812009512,0.0000000001\C,-1.2513519316,0.68
 12009511,-0.0000000001\C,0.,1.3513920596,0.0000000022\H,2.1644791977,1
 .2665056668,0.0000000007\H,2.1644791975,-1.2665056666,-0.0000000007\H,
 -2.1644791975,-1.2665056666,-0.0000000003\H,-2.1644791977,1.2665056668
 ,0.0000000003\F,0.,-2.6434693287,0.0000000018\F,0.,2.6434693288,-0.000
 0000018\\Version=ES64L-G16RevA.03\HF=-430.0466157\S2=0.761267\S2-1=0.\
 S2A=0.750036\RMSD=6.646e-10\RMSF=5.680e-05\ZeroPoint=0.0841151\Thermal
 =0.0902827\Dipole=0.,0.,0.\DipoleDeriv=-0.1165045,0.4052841,0.,0.17165
 89,-0.1633651,0.,0.,0.,-0.0395711,-0.1165046,-0.4052841,0.,-0.1716589,
 -0.1633652,0.,0.,0.,-0.039571,0.5859346,0.0000004,0.,0.,1.9156094,0.,0
 .,0.,0.3087693,-0.1165046,0.4052834,0.,0.1716589,-0.1633652,0.,0.,0.,-
 0.039571,-0.1165045,-0.4052835,0.,-0.1716589,-0.1633653,0.,0.,0.,-0.03
 95711,0.5859345,-0.0000003,0.,0.,1.9156095,0.,0.,0.,0.3087693,0.151691
 3,0.0188743,0.,0.0327174,0.1315603,0.,0.,0.,0.1676195,0.1516913,-0.018
 8743,0.,-0.0327174,0.1315603,0.,0.,0.,0.1676195,0.1516913,0.0188743,0.
 ,0.0327174,0.1315604,0.,0.,0.,0.1676195,0.1516913,-0.0188743,0.,-0.032
 7174,0.1315604,0.,0.,0.,0.1676195,-0.1563081,0.,0.,0.,-1.3519997,0.,0.
 ,0.,-0.0648663,-0.1563081,0.,0.,0.,-1.3519998,0.,0.,0.,-0.0648663\Pola
 r=65.8968707,0.0000001,87.989121,0.,0.,32.1019932\Quadrupole=5.9344734
 ,0.057709,-5.9921824,0.,0.,0.\PG=D02H [C2"(F1C1.C1F1),SG(C4H4)]\NImag=
 0\\0.68474318,0.07091425,0.77881617,0.,0.,0.11158451,-0.11271238,0.009
 24448,0.,0.68474318,-0.00924447,-0.45207319,0.,-0.07091426,0.77881616,
 0.,0.,-0.04412431,0.,0.,0.11158450,0.00156820,-0.02862907,0.,-0.254987
 79,-0.00675352,0.,0.58305671,-0.03823904,-0.02314321,0.,-0.08116261,-0
 .13189864,0.,-0.00000002,0.73560308,0.,0.,-0.00574513,0.,0.,-0.0600793
 3,0.,0.,0.15313607,-0.01153180,0.01799196,0.,-0.04457062,-0.01652927,0
 .,-0.25498781,0.08116263,0.,0.68474321,0.01799197,-0.02650697,0.,0.016
 52926,0.05386703,0.,0.00675353,-0.13189864,0.,0.07091426,0.77881617,0.
 ,0.,0.00852277,0.,0.,0.00392284,0.,0.,-0.06007933,0.,0.,0.11158450,-0.
 04457062,0.01652927,0.,-0.01153180,-0.01799196,0.,0.00156821,0.0382390
 1,0.,-0.11271241,0.00924447,0.,0.68474321,-0.01652925,0.05386702,0.,-0
 .01799197,-0.02650697,0.,0.02862908,-0.02314321,0.,-0.00924448,-0.4520
 7319,0.,-0.07091425,0.77881617,0.,0.,0.00392285,0.,0.,0.00852277,0.,0.
 ,-0.00574513,0.,0.,-0.04412431,0.,0.,0.11158451,-0.25498780,0.00675354
 ,0.,0.00156820,0.02862906,0.,0.04388039,0.00000002,0.,0.00156820,-0.02
 862907,0.,-0.25498780,-0.00675355,0.,0.58305672,0.08116261,-0.13189865
 ,0.,0.03823904,-0.02314321,0.,-0.00000002,-0.01900443,0.,-0.03823901,-
 0.02314322,0.,-0.08116263,-0.13189864,0.,0.00000002,0.73560309,0.,0.,-
 0.06007935,0.,0.,-0.00574512,0.,0.,-0.00415682,0.,0.,-0.00574513,0.,0.
 ,-0.06007935,0.,0.,0.15313609,-0.26961896,-0.13232235,0.,0.00878230,0.
 00379071,0.,-0.00129724,0.00130356,0.,0.00100665,-0.00002064,0.,-0.002
 82893,0.00315795,0.,-0.01669908,-0.01586738,0.,0.27749307,-0.13397859,
 -0.14138954,0.,-0.02537328,-0.00958210,0.,0.00130026,-0.00445723,0.,0.
 00005862,-0.00062795,0.,0.00337879,-0.00225501,0.,0.01645658,0.0125010
 2,0.,0.14068287,0.14402908,0.,0.,-0.03720050,0.,0.,0.00620352,0.,0.,0.
 01105065,0.,0.,-0.00253984,0.,0.,0.00331478,0.,0.,0.00290480,0.,0.,0.0
 2477411,0.00878230,-0.00379071,0.,-0.26961896,0.13232235,0.,-0.0166990
 8,0.01586738,0.,-0.00282893,-0.00315795,0.,0.00100665,0.00002064,0.,-0
 .00129725,-0.00130356,0.,0.00061252,0.00004991,0.,0.27749307,0.0253732
 8,-0.00958210,0.,0.13397859,-0.14138954,0.,-0.01645658,0.01250102,0.,-
 0.00337879,-0.00225501,0.,-0.00005862,-0.00062795,0.,-0.00130026,-0.00
 445723,0.,-0.00004991,0.00111598,0.,-0.14068287,0.14402908,0.,0.,0.006
 20352,0.,0.,-0.03720050,0.,0.,0.00290480,0.,0.,0.00331478,0.,0.,-0.002
 53984,0.,0.,0.01105065,0.,0.,-0.00556116,0.,0.,0.02477411,0.00100665,-
 0.00002064,0.,-0.00282893,0.00315795,0.,-0.01669907,-0.01586738,0.,-0.
 26961896,-0.13232235,0.,0.00878230,0.00379071,0.,-0.00129725,0.0013035
 6,0.,0.00001187,-0.00007446,0.,-0.00060283,-0.00069703,0.,0.27749307,0
 .00005862,-0.00062795,0.,0.00337880,-0.00225501,0.,0.01645657,0.012501
 01,0.,-0.13397859,-0.14138954,0.,-0.02537328,-0.00958209,0.,0.00130027
 ,-0.00445723,0.,-0.00007446,0.00002982,0.,0.00069703,0.00066913,0.,0.1
 4068287,0.14402908,0.,0.,-0.00253984,0.,0.,0.00331478,0.,0.,0.00290480
 ,0.,0.,-0.03720050,0.,0.,0.00620352,0.,0.,0.01105065,0.,0.,-0.00003132
 ,0.,0.,0.00088144,0.,0.,0.02477411,-0.00282893,-0.00315795,0.,0.001006
 65,0.00002064,0.,-0.00129724,-0.00130356,0.,0.00878230,-0.00379071,0.,
 -0.26961896,0.13232235,0.,-0.01669908,0.01586738,0.,-0.00060283,0.0006
 9703,0.,0.00001187,0.00007446,0.,0.00061252,0.00004991,0.,0.27749307,-
 0.00337879,-0.00225501,0.,-0.00005862,-0.00062795,0.,-0.00130027,-0.00
 445723,0.,0.02537328,-0.00958210,0.,0.13397859,-0.14138954,0.,-0.01645
 658,0.01250101,0.,-0.00069703,0.00066913,0.,0.00007446,0.00002982,0.,-
 0.00004991,0.00111598,0.,-0.14068287,0.14402908,0.,0.,0.00331478,0.,0.
 ,-0.00253984,0.,0.,0.01105065,0.,0.,0.00620352,0.,0.,-0.03720051,0.,0.
 ,0.00290480,0.,0.,0.00088144,0.,0.,-0.00003132,0.,0.,-0.00556116,0.,0.
 ,0.02477411,-0.00578307,-0.00169812,0.,0.00593322,-0.04818535,0.,-0.07
 721479,0.,0.,0.00593323,0.04818535,0.,-0.00578307,0.00169812,0.,-0.006
 89047,0.,0.,0.00072578,-0.00150386,0.,0.00241485,0.00169387,0.,0.00241
 485,-0.00169387,0.,0.00072578,0.00150386,0.,0.07635407,-0.00157127,0.0
 0132939,0.,-0.00744070,-0.04653598,0.,0.00000001,-0.43211196,0.,0.0074
 4067,-0.04653598,0.,0.00157129,0.00132938,0.,-0.00000001,0.00950945,0.
 ,0.00082840,-0.00104439,0.,0.00073175,0.00101118,0.,-0.00073175,0.0010
 1118,0.,-0.00082840,-0.00104438,0.,0.,0.52249281,0.,0.,0.00465749,0.,0
 .,0.01148320,0.,0.,-0.04492063,0.,0.,0.01148320,0.,0.,0.00465749,0.,0.
 ,-0.00032059,0.,0.,-0.00132901,0.,0.,-0.00246747,0.,0.,-0.00246747,0.,
 0.,-0.00132901,0.,0.,0.02045139,0.00593322,0.04818535,0.,-0.00578307,0
 .00169812,0.,-0.00689047,0.,0.,-0.00578307,-0.00169812,0.,0.00593322,-
 0.04818535,0.,-0.07721479,0.,0.,0.00241485,-0.00169387,0.,0.00072578,0
 .00150386,0.,0.00072578,-0.00150386,0.,0.00241485,0.00169387,0.,0.0011
 6960,0.,0.,0.07635407,0.00744070,-0.04653598,0.,0.00157127,0.00132939,
 0.,0.00000001,0.00950945,0.,-0.00157129,0.00132939,0.,-0.00744068,-0.0
 4653598,0.,0.,-0.43211197,0.,-0.00073175,0.00101118,0.,-0.00082840,-0.
 00104439,0.,0.00082840,-0.00104438,0.,0.00073175,0.00101118,0.,0.,-0.0
 0941071,0.,0.,0.52249281,0.,0.,0.01148321,0.,0.,0.00465749,0.,0.,-0.00
 032060,0.,0.,0.00465749,0.,0.,0.01148321,0.,0.,-0.04492063,0.,0.,-0.00
 246747,0.,0.,-0.00132901,0.,0.,-0.00132901,0.,0.,-0.00246747,0.,0.,0.0
 0010142,0.,0.,0.02045139\\0.00014057,0.00000248,0.,0.00014057,-0.00000
 249,0.,0.,-0.00003557,0.,-0.00014057,-0.00000249,0.,-0.00014057,0.0000
 0248,0.,0.,0.00003557,0.,-0.00002507,-0.00003906,0.,-0.00002507,0.0000
 3906,0.,0.00002507,0.00003906,0.,0.00002507,-0.00003906,0.,0.,0.000113
 87,0.,0.,-0.00011387,0.\\\@


 QED = W**5 (WHICH WAS WHAT WE WANTED)
 Job cpu time:       0 days  0 hours  6 minutes 11.4 seconds.
 Elapsed time:       0 days  0 hours  6 minutes 12.2 seconds.
 File lengths (MBytes):  RWF=    112 Int=      0 D2E=      0 Chk=      6 Scr=      1
 Normal termination of Gaussian 16 at Wed Jan 29 15:55:06 2025.
