 Entering Gaussian System, Link 0=g16
 Initial command:
 /sw/cluster/pub/apps//g16/l1.exe "/data/natrosa/28462/Gau-2979.inp" -scrdir="/data/natrosa/28462/"
 Entering Link 1 = /sw/cluster/pub/apps//g16/l1.exe PID=      2980.
  
 Copyright (c) 1988,1990,1992,1993,1995,1998,2003,2009,2016,
            Gaussian, Inc.  All Rights Reserved.
  
 This is part of the Gaussian(R) 16 program.  It is based on
 the Gaussian(R) 09 system (copyright 2009, Gaussian, Inc.),
 the Gaussian(R) 03 system (copyright 2003, Gaussian, Inc.),
 the Gaussian(R) 98 system (copyright 1998, Gaussian, Inc.),
 the Gaussian(R) 94 system (copyright 1995, Gaussian, Inc.),
 the Gaussian 92(TM) system (copyright 1992, Gaussian, Inc.),
 the Gaussian 90(TM) system (copyright 1990, Gaussian, Inc.),
 the Gaussian 88(TM) system (copyright 1988, Gaussian, Inc.),
 the Gaussian 86(TM) system (copyright 1986, Carnegie Mellon
 University), and the Gaussian 82(TM) system (copyright 1983,
 Carnegie Mellon University). Gaussian is a federally registered
 trademark of Gaussian, Inc.
  
 This software contains proprietary and confidential information,
 including trade secrets, belonging to Gaussian, Inc.
  
 This software is provided under written license and may be
 used, copied, transmitted, or stored only in accord with that
 written license.
  
 The following legend is applicable only to US Government
 contracts under FAR:
  
                    RESTRICTED RIGHTS LEGEND
  
 Use, reproduction and disclosure by the US Government is
 subject to restrictions as set forth in subparagraphs (a)
 and (c) of the Commercial Computer Software - Restricted
 Rights clause in FAR 52.227-19.
  
 Gaussian, Inc.
 340 Quinnipiac St., Bldg. 40, Wallingford CT 06492
  
  
 ---------------------------------------------------------------
 Warning -- This program may not be used in any manner that
 competes with the business of Gaussian, Inc. or will provide
 assistance to any competitor of Gaussian, Inc.  The licensee
 of this program is prohibited from giving any competitor of
 Gaussian, Inc. access to this program.  By using this program,
 the user acknowledges that Gaussian, Inc. is engaged in the
 business of creating and licensing software in the field of
 computational chemistry and represents and warrants to the
 licensee that it is not a competitor of Gaussian, Inc. and that
 it will not use this program in any manner prohibited above.
 ---------------------------------------------------------------
  

 Cite this work as:
 Gaussian 16, Revision A.03,
 M. J. Frisch, G. W. Trucks, H. B. Schlegel, G. E. Scuseria, 
 M. A. Robb, J. R. Cheeseman, G. Scalmani, V. Barone, 
 G. A. Petersson, H. Nakatsuji, X. Li, M. Caricato, A. V. Marenich, 
 J. Bloino, B. G. Janesko, R. Gomperts, B. Mennucci, H. P. Hratchian, 
 J. V. Ortiz, A. F. Izmaylov, J. L. Sonnenberg, D. Williams-Young, 
 F. Ding, F. Lipparini, F. Egidi, J. Goings, B. Peng, A. Petrone, 
 T. Henderson, D. Ranasinghe, V. G. Zakrzewski, J. Gao, N. Rega, 
 G. Zheng, W. Liang, M. Hada, M. Ehara, K. Toyota, R. Fukuda, 
 J. Hasegawa, M. Ishida, T. Nakajima, Y. Honda, O. Kitao, H. Nakai, 
 T. Vreven, K. Throssell, J. A. Montgomery, Jr., J. E. Peralta, 
 F. Ogliaro, M. J. Bearpark, J. J. Heyd, E. N. Brothers, K. N. Kudin, 
 V. N. Staroverov, T. A. Keith, R. Kobayashi, J. Normand, 
 K. Raghavachari, A. P. Rendell, J. C. Burant, S. S. Iyengar, 
 J. Tomasi, M. Cossi, J. M. Millam, M. Klene, C. Adamo, R. Cammi, 
 J. W. Ochterski, R. L. Martin, K. Morokuma, O. Farkas, 
 J. B. Foresman, and D. J. Fox, Gaussian, Inc., Wallingford CT, 2016.
 
 ******************************************
 Gaussian 16:  ES64L-G16RevA.03 25-Dec-2016
                29-Jan-2025 
 ******************************************
 %chk=1-4-DFB-ANI.chk
 --------------------------------------------------------
 #p opt freq PBE1PBE/6-311++G(d,p) density=current nosymm
 --------------------------------------------------------
 1/18=20,19=15,26=3,38=1/1,3;
 2/9=110,12=2,15=1,17=6,18=5,40=1/2;
 3/5=4,6=6,7=1111,11=2,25=1,30=1,71=1,74=-13/1,2,3;
 4//1;
 5/5=2,38=5/2;
 6/7=2,8=2,9=2,10=2,22=-1,28=1/1;
 7/30=1/1,2,3,16;
 1/18=20,19=15,26=3/3(2);
 2/9=110,15=1/2;
 99//99;
 2/9=110,15=1/2;
 3/5=4,6=6,7=1111,11=2,25=1,30=1,71=1,74=-13/1,2,3;
 4/5=5,16=3,69=1/1;
 5/5=2,38=5/2;
 7/30=1/1,2,3,16;
 1/18=20,19=15,26=3/3(-5);
 2/9=110,15=1/2;
 6/7=2,8=2,9=2,10=2,19=2,22=-1,28=1/1;
 99/9=1/99;
 Leave Link    1 at Wed Jan 29 15:46:07 2025, MaxMem=           0 cpu:               0.0 elap:               0.0
 (Enter /sw/cluster/pub/apps//g16/l101.exe)
 ----------
 1 4-DFB SP
 ----------
 Symbolic Z-matrix:
 Charge = -1 Multiplicity = 2
 C                     1.21122   0.69497   0. 
 C                     1.21122  -0.69497  0. 
 C                     0.       -1.36351   0. 
 C                    -1.21122  -0.69497  0. 
 C                    -1.21122   0.69497   0. 
 C                     0.        1.36351   0. 
 H                     2.13708   1.25795   0. 
 H                     2.13708  -1.25795  0. 
 H                    -2.13708  -1.25795   0. 
 H                    -2.13708   1.25795   0. 
 F                     0.       -2.70733   0. 
 F                     0.        2.70733  0. 
 
 ITRead=  0  0  0  0  0  0  0  0  0  0  0  0
 MicOpt= -1 -1 -1 -1 -1 -1 -1 -1 -1 -1 -1 -1
 NAtoms=     12 NQM=       12 NQMF=       0 NMMI=      0 NMMIF=      0
                NMic=       0 NMicF=      0.
                    Isotopes and Nuclear Properties:
 (Nuclear quadrupole moments (NQMom) in fm**2, nuclear magnetic moments (NMagM)
  in nuclear magnetons)

  Atom         1           2           3           4           5           6           7           8           9          10
 IAtWgt=          12          12          12          12          12          12           1           1           1           1
 AtmWgt=  12.0000000  12.0000000  12.0000000  12.0000000  12.0000000  12.0000000   1.0078250   1.0078250   1.0078250   1.0078250
 NucSpn=           0           0           0           0           0           0           1           1           1           1
 AtZEff=  -0.0000000  -0.0000000  -0.0000000  -0.0000000  -0.0000000  -0.0000000  -0.0000000  -0.0000000  -0.0000000  -0.0000000
 NQMom=    0.0000000   0.0000000   0.0000000   0.0000000   0.0000000   0.0000000   0.0000000   0.0000000   0.0000000   0.0000000
 NMagM=    0.0000000   0.0000000   0.0000000   0.0000000   0.0000000   0.0000000   2.7928460   2.7928460   2.7928460   2.7928460
 AtZNuc=   6.0000000   6.0000000   6.0000000   6.0000000   6.0000000   6.0000000   1.0000000   1.0000000   1.0000000   1.0000000

  Atom        11          12
 IAtWgt=          19          19
 AtmWgt=  18.9984032  18.9984032
 NucSpn=           1           1
 AtZEff=  -0.0000000  -0.0000000
 NQMom=    0.0000000   0.0000000
 NMagM=    2.6288670   2.6288670
 AtZNuc=   9.0000000   9.0000000
 Leave Link  101 at Wed Jan 29 15:46:07 2025, MaxMem=   104857600 cpu:               0.0 elap:               0.0
 (Enter /sw/cluster/pub/apps//g16/l103.exe)

 GradGradGradGradGradGradGradGradGradGradGradGradGradGradGradGradGradGrad
 Berny optimization.
 Initialization pass.
                           ----------------------------
                           !    Initial Parameters    !
                           ! (Angstroms and Degrees)  !
 --------------------------                            --------------------------
 ! Name  Definition              Value          Derivative Info.                !
 --------------------------------------------------------------------------------
 ! R1    R(1,2)                  1.3899         estimate D2E/DX2                !
 ! R2    R(1,6)                  1.3835         estimate D2E/DX2                !
 ! R3    R(1,7)                  1.0836         estimate D2E/DX2                !
 ! R4    R(2,3)                  1.3835         estimate D2E/DX2                !
 ! R5    R(2,8)                  1.0836         estimate D2E/DX2                !
 ! R6    R(3,4)                  1.3835         estimate D2E/DX2                !
 ! R7    R(3,11)                 1.3438         estimate D2E/DX2                !
 ! R8    R(4,5)                  1.3899         estimate D2E/DX2                !
 ! R9    R(4,9)                  1.0836         estimate D2E/DX2                !
 ! R10   R(5,6)                  1.3835         estimate D2E/DX2                !
 ! R11   R(5,10)                 1.0836         estimate D2E/DX2                !
 ! R12   R(6,12)                 1.3438         estimate D2E/DX2                !
 ! A1    A(2,1,6)              118.897          estimate D2E/DX2                !
 ! A2    A(2,1,7)              121.3019         estimate D2E/DX2                !
 ! A3    A(6,1,7)              119.8011         estimate D2E/DX2                !
 ! A4    A(1,2,3)              118.897          estimate D2E/DX2                !
 ! A5    A(1,2,8)              121.3019         estimate D2E/DX2                !
 ! A6    A(3,2,8)              119.8011         estimate D2E/DX2                !
 ! A7    A(2,3,4)              122.2061         estimate D2E/DX2                !
 ! A8    A(2,3,11)             118.897          estimate D2E/DX2                !
 ! A9    A(4,3,11)             118.897          estimate D2E/DX2                !
 ! A10   A(3,4,5)              118.897          estimate D2E/DX2                !
 ! A11   A(3,4,9)              119.8011         estimate D2E/DX2                !
 ! A12   A(5,4,9)              121.3019         estimate D2E/DX2                !
 ! A13   A(4,5,6)              118.897          estimate D2E/DX2                !
 ! A14   A(4,5,10)             121.3019         estimate D2E/DX2                !
 ! A15   A(6,5,10)             119.8011         estimate D2E/DX2                !
 ! A16   A(1,6,5)              122.2061         estimate D2E/DX2                !
 ! A17   A(1,6,12)             118.897          estimate D2E/DX2                !
 ! A18   A(5,6,12)             118.897          estimate D2E/DX2                !
 ! D1    D(6,1,2,3)              0.0            estimate D2E/DX2                !
 ! D2    D(6,1,2,8)            180.0            estimate D2E/DX2                !
 ! D3    D(7,1,2,3)            180.0            estimate D2E/DX2                !
 ! D4    D(7,1,2,8)              0.0            estimate D2E/DX2                !
 ! D5    D(2,1,6,5)              0.0            estimate D2E/DX2                !
 ! D6    D(2,1,6,12)           180.0            estimate D2E/DX2                !
 ! D7    D(7,1,6,5)            180.0            estimate D2E/DX2                !
 ! D8    D(7,1,6,12)             0.0            estimate D2E/DX2                !
 ! D9    D(1,2,3,4)              0.0            estimate D2E/DX2                !
 ! D10   D(1,2,3,11)           180.0            estimate D2E/DX2                !
 ! D11   D(8,2,3,4)            180.0            estimate D2E/DX2                !
 ! D12   D(8,2,3,11)             0.0            estimate D2E/DX2                !
 ! D13   D(2,3,4,5)              0.0            estimate D2E/DX2                !
 ! D14   D(2,3,4,9)            180.0            estimate D2E/DX2                !
 ! D15   D(11,3,4,5)           180.0            estimate D2E/DX2                !
 ! D16   D(11,3,4,9)             0.0            estimate D2E/DX2                !
 ! D17   D(3,4,5,6)              0.0            estimate D2E/DX2                !
 ! D18   D(3,4,5,10)           180.0            estimate D2E/DX2                !
 ! D19   D(9,4,5,6)            180.0            estimate D2E/DX2                !
 ! D20   D(9,4,5,10)             0.0            estimate D2E/DX2                !
 ! D21   D(4,5,6,1)              0.0            estimate D2E/DX2                !
 ! D22   D(4,5,6,12)           180.0            estimate D2E/DX2                !
 ! D23   D(10,5,6,1)           180.0            estimate D2E/DX2                !
 ! D24   D(10,5,6,12)            0.0            estimate D2E/DX2                !
 --------------------------------------------------------------------------------
 Trust Radius=3.00D-01 FncErr=1.00D-07 GrdErr=1.00D-06 EigMax=2.50D+02 EigMin=1.00D-04
 Number of steps in this run=     64 maximum allowed number of steps=    100.
 GradGradGradGradGradGradGradGradGradGradGradGradGradGradGradGradGradGrad

 Leave Link  103 at Wed Jan 29 15:46:07 2025, MaxMem=   104857600 cpu:               0.0 elap:               0.0
 (Enter /sw/cluster/pub/apps//g16/l202.exe)
                          Input orientation:                          
 ---------------------------------------------------------------------
 Center     Atomic      Atomic             Coordinates (Angstroms)
 Number     Number       Type             X           Y           Z
 ---------------------------------------------------------------------
      1          6           0        1.211215    0.694971    0.000000
      2          6           0        1.211215   -0.694971   -0.000000
      3          6           0        0.000000   -1.363514    0.000000
      4          6           0       -1.211215   -0.694971   -0.000000
      5          6           0       -1.211215    0.694971    0.000000
      6          6           0        0.000000    1.363514    0.000000
      7          1           0        2.137078    1.257947    0.000000
      8          1           0        2.137078   -1.257947   -0.000000
      9          1           0       -2.137078   -1.257947    0.000000
     10          1           0       -2.137078    1.257947    0.000000
     11          9           0        0.000000   -2.707327    0.000000
     12          9           0        0.000000    2.707327   -0.000000
 ---------------------------------------------------------------------
                    Distance matrix (angstroms):
                    1          2          3          4          5
     1  C    0.000000
     2  C    1.389942   0.000000
     3  C    2.388390   1.383471   0.000000
     4  C    2.792868   2.422431   1.383471   0.000000
     5  C    2.422431   2.792868   2.388390   1.389942   0.000000
     6  C    1.383471   2.388390   2.727028   2.388390   1.383471
     7  H    1.083588   2.161275   3.382183   3.876204   3.395292
     8  H    2.161275   1.083588   2.139684   3.395292   3.876204
     9  H    3.876204   3.395292   2.139684   1.083588   2.161275
    10  H    3.395292   3.876204   3.382183   2.161275   1.083588
    11  F    3.611465   2.348748   1.343813   2.348748   3.611465
    12  F    2.348748   3.611465   4.070841   3.611465   2.348748
                    6          7          8          9         10
     6  C    0.000000
     7  H    2.139684   0.000000
     8  H    3.382183   2.515894   0.000000
     9  H    3.382183   4.959650   4.274156   0.000000
    10  H    2.139684   4.274156   4.959650   2.515894   0.000000
    11  F    4.070841   4.504498   2.582209   2.582209   4.504498
    12  F    1.343813   2.582209   4.504498   4.504498   2.582209
                   11         12
    11  F    0.000000
    12  F    5.414654   0.000000
 Symmetry turned off by external request.
 Stoichiometry    C6H4F2(1-,2)
 Framework group  D2H[C2"(FC.CF),SG(C4H4)]
 Deg. of freedom     6
 Full point group                 D2H     NOp   8
 Rotational constants (GHZ):           5.6893211           1.4329481           1.1446495
 Leave Link  202 at Wed Jan 29 15:46:07 2025, MaxMem=   104857600 cpu:               0.0 elap:               0.0
 (Enter /sw/cluster/pub/apps//g16/l301.exe)
 Standard basis: 6-311++G(d,p) (5D, 7F)
 Ernie: Thresh=  0.10000D-02 Tol=  0.10000D-05 Strict=F.
   204 basis functions,   324 primitive gaussians,   212 cartesian basis functions
    30 alpha electrons       29 beta electrons
       nuclear repulsion energy       342.3452495129 Hartrees.
 IExCor= 1009 DFT=T Ex+Corr=PBE1PBE ExCW=0 ScaHFX=  0.250000
 ScaDFX=  0.750000  0.750000  1.000000  1.000000 ScalE2=  1.000000  1.000000
 IRadAn=      5 IRanWt=     -1 IRanGd=            0 ICorTp=0 IEmpDi=  4
 NAtoms=   12 NActive=   12 NUniq=   12 SFac= 1.00D+00 NAtFMM=   60 NAOKFM=F Big=F
 Integral buffers will be    131072 words long.
 Raffenetti 2 integral format.
 Two-electron integral symmetry is turned off.
 Leave Link  301 at Wed Jan 29 15:46:07 2025, MaxMem=   104857600 cpu:               0.0 elap:               0.0
 (Enter /sw/cluster/pub/apps//g16/l302.exe)
 NPDir=0 NMtPBC=     1 NCelOv=     1 NCel=       1 NClECP=     1 NCelD=      1
         NCelK=      1 NCelE2=     1 NClLst=     1 CellRange=     0.0.
 One-electron integrals computed using PRISM.
 NBasis=   204 RedAO= T EigKep=  2.22D-06  NBF=   204
 NBsUse=   204 1.00D-06 EigRej= -1.00D+00 NBFU=   204
 Precomputing XC quadrature grid using
 IXCGrd= 4 IRadAn=           5 IRanWt=          -1 IRanGd=           0 AccXCQ= 0.00D+00.
 Generated NRdTot=       0 NPtTot=           0 NUsed=           0 NTot=          32
 NSgBfM=   212   212   212   212   212 MxSgAt=    12 MxSgA2=    12.
 Leave Link  302 at Wed Jan 29 15:46:07 2025, MaxMem=   104857600 cpu:               0.1 elap:               0.1
 (Enter /sw/cluster/pub/apps//g16/l303.exe)
 DipDrv:  MaxL=1.
 Leave Link  303 at Wed Jan 29 15:46:07 2025, MaxMem=   104857600 cpu:               0.0 elap:               0.0
 (Enter /sw/cluster/pub/apps//g16/l401.exe)
 ExpMin= 3.60D-02 ExpMax= 1.14D+04 ExpMxC= 1.72D+03 IAcc=3 IRadAn=         5 AccDes= 0.00D+00
 Harris functional with IExCor= 1009 and IRadAn=       5 diagonalized for initial guess.
 HarFok:  IExCor= 1009 AccDes= 0.00D+00 IRadAn=         5 IDoV= 1 UseB2=F ITyADJ=14
 ICtDFT=  3500011 ScaDFX=  1.000000  1.000000  1.000000  1.000000
 FoFCou: FMM=F IPFlag=           0 FMFlag=      100000 FMFlg1=           0
         NFxFlg=           0 DoJE=T BraDBF=F KetDBF=T FulRan=T
         wScrn=  0.000000 ICntrl=       500 IOpCl=  0 I1Cent=   200000004 NGrid=           0
         NMat0=    1 NMatS0=      1 NMatT0=    0 NMatD0=    1 NMtDS0=    0 NMtDT0=    0
 Symmetry not used in FoFCou.
 Harris En= -430.607997048429    
 JPrj=0 DoOrth=F DoCkMO=F.
 Initial guess <Sx>= 0.0000 <Sy>= 0.0000 <Sz>= 0.5000 <S**2>= 0.7500 S= 0.5000
 Leave Link  401 at Wed Jan 29 15:46:08 2025, MaxMem=   104857600 cpu:               1.2 elap:               1.2
 (Enter /sw/cluster/pub/apps//g16/l502.exe)
 Two-electron integral symmetry not used.
 UHF open shell SCF:
 Using DIIS extrapolation, IDIIS=  1040.
 NGot=   104857600 LenX=   104764860 LenY=   104719475
 Requested convergence on RMS density matrix=1.00D-08 within 128 cycles.
 Requested convergence on MAX density matrix=1.00D-06.
 Requested convergence on             energy=1.00D-06.
 No special actions if energy rises.
 Fock matrices will be formed incrementally for  20 cycles.

 Cycle   1  Pass 1  IDiag  1:
 FoFJK:  IHMeth= 1 ICntrl=       0 DoSepK=F KAlg= 0 I1Cent=           0 FoldK=F
 IRaf= 970000000 NMat=       1 IRICut=       1 DoRegI=T DoRafI=F ISym2E= 0 IDoP0=0 IntGTp=1.
 FoFCou: FMM=F IPFlag=           0 FMFlag=      100000 FMFlg1=           0
         NFxFlg=           0 DoJE=F BraDBF=F KetDBF=F FulRan=T
         wScrn=  0.000000 ICntrl=         0 IOpCl=  1 I1Cent=           0 NGrid=           0
         NMat0=    1 NMatS0=      1 NMatT0=    0 NMatD0=    1 NMtDS0=    0 NMtDT0=    0
 Symmetry not used in FoFCou.
 E= -430.055849672903    
 DIIS: error= 5.69D-02 at cycle   1 NSaved=   1.
 NSaved= 1 IEnMin= 1 EnMin= -430.055849672903     IErMin= 1 ErrMin= 5.69D-02
 ErrMax= 5.69D-02  0.00D+00 EMaxC= 1.00D-01 BMatC= 1.16D+00 BMatP= 1.16D+00
 IDIUse=3 WtCom= 4.31D-01 WtEn= 5.69D-01
 Coeff-Com:  0.100D+01
 Coeff-En:   0.100D+01
 Coeff:      0.100D+01
 Gap=     0.026 Goal=   None    Shift=    0.000
 Gap=     0.321 Goal=   None    Shift=    0.000
 GapD=    0.026 DampG=0.250 DampE=0.500 DampFc=0.2500 IDamp=-1.
 Damping current iteration by 2.50D-01
 RMSDP=8.83D-01 MaxDP=8.47D+01              OVMax= 9.96D-01

 Cycle   2  Pass 1  IDiag  1:
 RMSU=  2.21D-01    CP:  1.16D+00
 E= -430.173189106008     Delta-E=       -0.117339433105 Rises=F Damp=T
 DIIS: error= 2.62D-02 at cycle   2 NSaved=   2.
 NSaved= 2 IEnMin= 2 EnMin= -430.173189106008     IErMin= 2 ErrMin= 2.62D-02
 ErrMax= 2.62D-02  0.00D+00 EMaxC= 1.00D-01 BMatC= 2.45D-01 BMatP= 1.16D+00
 IDIUse=3 WtCom= 7.38D-01 WtEn= 2.62D-01
 Coeff-Com: -0.651D+00 0.165D+01
 Coeff-En:   0.000D+00 0.100D+01
 Coeff:     -0.481D+00 0.148D+01
 Gap=     0.005 Goal=   None    Shift=    0.000
 Gap=     0.181 Goal=   None    Shift=    0.000
 RMSDP=2.55D-01 MaxDP=1.68D+01 DE=-1.17D-01 OVMax= 2.35D-01

 Cycle   3  Pass 1  IDiag  1:
 RMSU=  1.43D-01    CP:  1.25D+00  1.96D+00
 E= -430.335036300291     Delta-E=       -0.161847194283 Rises=F Damp=F
 DIIS: error= 1.40D-02 at cycle   3 NSaved=   3.
 NSaved= 3 IEnMin= 3 EnMin= -430.335036300291     IErMin= 3 ErrMin= 1.40D-02
 ErrMax= 1.40D-02  0.00D+00 EMaxC= 1.00D-01 BMatC= 6.91D-02 BMatP= 2.45D-01
 IDIUse=3 WtCom= 8.60D-01 WtEn= 1.40D-01
 Coeff-Com: -0.266D-01 0.373D+00 0.654D+00
 Coeff-En:   0.000D+00 0.000D+00 0.100D+01
 Coeff:     -0.228D-01 0.320D+00 0.702D+00
 Gap=     0.016 Goal=   None    Shift=    0.000
 Gap=     0.241 Goal=   None    Shift=    0.000
 RMSDP=9.02D-02 MaxDP=7.88D+00 DE=-1.62D-01 OVMax= 7.55D-02

 Cycle   4  Pass 1  IDiag  1:
 RMSU=  6.71D-03    CP:  1.15D+00  1.57D+00  8.25D-01
 E= -430.352500075980     Delta-E=       -0.017463775689 Rises=F Damp=F
 DIIS: error= 5.46D-03 at cycle   4 NSaved=   4.
 NSaved= 4 IEnMin= 4 EnMin= -430.352500075980     IErMin= 4 ErrMin= 5.46D-03
 ErrMax= 5.46D-03  0.00D+00 EMaxC= 1.00D-01 BMatC= 9.74D-03 BMatP= 6.91D-02
 IDIUse=3 WtCom= 9.45D-01 WtEn= 5.46D-02
 Coeff-Com:  0.110D+00-0.111D+00 0.335D+00 0.666D+00
 Coeff-En:   0.000D+00 0.000D+00 0.000D+00 0.100D+01
 Coeff:      0.104D+00-0.105D+00 0.317D+00 0.684D+00
 Gap=     0.022 Goal=   None    Shift=    0.000
 Gap=     0.235 Goal=   None    Shift=    0.000
 RMSDP=7.64D-02 MaxDP=7.31D+00 DE=-1.75D-02 OVMax= 3.29D-02

 Cycle   5  Pass 1  IDiag  1:
 RMSU=  5.22D-03    CP:  1.10D+00  1.22D+00  8.11D-01  1.31D+00
 E= -430.354056223514     Delta-E=       -0.001556147534 Rises=F Damp=F
 DIIS: error= 1.59D-03 at cycle   5 NSaved=   5.
 NSaved= 5 IEnMin= 5 EnMin= -430.354056223514     IErMin= 5 ErrMin= 1.59D-03
 ErrMax= 1.59D-03  0.00D+00 EMaxC= 1.00D-01 BMatC= 8.51D-04 BMatP= 9.74D-03
 IDIUse=3 WtCom= 9.84D-01 WtEn= 1.59D-02
 Coeff-Com:  0.162D-01-0.211D-01 0.338D-01 0.241D+00 0.730D+00
 Coeff-En:   0.000D+00 0.000D+00 0.000D+00 0.000D+00 0.100D+01
 Coeff:      0.159D-01-0.207D-01 0.333D-01 0.237D+00 0.734D+00
 Gap=     0.021 Goal=   None    Shift=    0.000
 Gap=     0.234 Goal=   None    Shift=    0.000
 RMSDP=4.14D-02 MaxDP=3.98D+00 DE=-1.56D-03 OVMax= 1.38D-02

 Cycle   6  Pass 1  IDiag  1:
 RMSU=  1.69D-03    CP:  1.07D+00  1.03D+00  8.34D-01  1.35D+00  1.96D+00
 E= -430.354241619203     Delta-E=       -0.000185395689 Rises=F Damp=F
 DIIS: error= 6.71D-04 at cycle   6 NSaved=   6.
 NSaved= 6 IEnMin= 6 EnMin= -430.354241619203     IErMin= 6 ErrMin= 6.71D-04
 ErrMax= 6.71D-04  0.00D+00 EMaxC= 1.00D-01 BMatC= 9.19D-05 BMatP= 8.51D-04
 IDIUse=3 WtCom= 9.93D-01 WtEn= 6.71D-03
 Coeff-Com: -0.467D-02 0.526D-02-0.893D-02 0.315D-01 0.267D+00 0.709D+00
 Coeff-En:   0.000D+00 0.000D+00 0.000D+00 0.000D+00 0.000D+00 0.100D+01
 Coeff:     -0.464D-02 0.523D-02-0.887D-02 0.313D-01 0.266D+00 0.711D+00
 Gap=     0.021 Goal=   None    Shift=    0.000
 Gap=     0.234 Goal=   None    Shift=    0.000
 RMSDP=2.16D-02 MaxDP=2.05D+00 DE=-1.85D-04 OVMax= 7.90D-03

 Cycle   7  Pass 1  IDiag  1:
 RMSU=  4.11D-04    CP:  1.05D+00  9.38D-01  8.41D-01  1.37D+00  2.56D+00
                    CP:  1.63D+00
 E= -430.354279341384     Delta-E=       -0.000037722181 Rises=F Damp=F
 DIIS: error= 3.19D-04 at cycle   7 NSaved=   7.
 NSaved= 7 IEnMin= 7 EnMin= -430.354279341384     IErMin= 7 ErrMin= 3.19D-04
 ErrMax= 3.19D-04  0.00D+00 EMaxC= 1.00D-01 BMatC= 2.05D-05 BMatP= 9.19D-05
 IDIUse=3 WtCom= 9.97D-01 WtEn= 3.19D-03
 Coeff-Com: -0.509D-02 0.781D-02-0.775D-02-0.378D-01-0.520D-01 0.293D+00
 Coeff-Com:  0.802D+00
 Coeff-En:   0.000D+00 0.000D+00 0.000D+00 0.000D+00 0.000D+00 0.000D+00
 Coeff-En:   0.100D+01
 Coeff:     -0.507D-02 0.778D-02-0.772D-02-0.377D-01-0.519D-01 0.292D+00
 Coeff:      0.802D+00
 Gap=     0.021 Goal=   None    Shift=    0.000
 Gap=     0.234 Goal=   None    Shift=    0.000
 RMSDP=1.72D-02 MaxDP=1.61D+00 DE=-3.77D-05 OVMax= 6.94D-03

 Cycle   8  Pass 1  IDiag  1:
 RMSU=  5.19D-04    CP:  1.03D+00  8.62D-01  8.46D-01  1.38D+00  3.00D+00
                    CP:  2.22D+00  1.97D+00
 E= -430.354293067602     Delta-E=       -0.000013726218 Rises=F Damp=F
 DIIS: error= 9.00D-05 at cycle   8 NSaved=   8.
 NSaved= 8 IEnMin= 8 EnMin= -430.354293067602     IErMin= 8 ErrMin= 9.00D-05
 ErrMax= 9.00D-05  0.00D+00 EMaxC= 1.00D-01 BMatC= 1.61D-06 BMatP= 2.05D-05
 IDIUse=1 WtCom= 1.00D+00 WtEn= 0.00D+00
 Coeff-Com:  0.557D-03-0.267D-03 0.516D-05-0.105D-01-0.502D-01-0.113D+00
 Coeff-Com:  0.566D-01 0.112D+01
 Coeff:      0.557D-03-0.267D-03 0.516D-05-0.105D-01-0.502D-01-0.113D+00
 Coeff:      0.566D-01 0.112D+01
 Gap=     0.021 Goal=   None    Shift=    0.000
 Gap=     0.233 Goal=   None    Shift=    0.000
 RMSDP=1.11D-02 MaxDP=1.03D+00 DE=-1.37D-05 OVMax= 4.80D-03

 Cycle   9  Pass 1  IDiag  1:
 RMSU=  9.90D-04    CP:  1.02D+00  8.12D-01  8.48D-01  1.40D+00  3.00D+00
                    CP:  2.67D+00  2.78D+00  3.00D+00
 E= -430.354295916636     Delta-E=       -0.000002849034 Rises=F Damp=F
 DIIS: error= 1.05D-05 at cycle   9 NSaved=   9.
 NSaved= 9 IEnMin= 9 EnMin= -430.354295916636     IErMin= 9 ErrMin= 1.05D-05
 ErrMax= 1.05D-05  0.00D+00 EMaxC= 1.00D-01 BMatC= 5.42D-08 BMatP= 1.61D-06
 IDIUse=1 WtCom= 1.00D+00 WtEn= 0.00D+00
 Coeff-Com:  0.286D-03-0.541D-03 0.609D-04 0.275D-02 0.552D-02-0.162D-01
 Coeff-Com: -0.571D-01-0.482D-01 0.111D+01
 Coeff:      0.286D-03-0.541D-03 0.609D-04 0.275D-02 0.552D-02-0.162D-01
 Coeff:     -0.571D-01-0.482D-01 0.111D+01
 Gap=     0.021 Goal=   None    Shift=    0.000
 Gap=     0.233 Goal=   None    Shift=    0.000
 RMSDP=2.83D-03 MaxDP=2.63D-01 DE=-2.85D-06 OVMax= 1.32D-03

 Cycle  10  Pass 1  IDiag  1:
 RMSU=  1.30D-04    CP:  1.02D+00  8.00D-01  8.49D-01  1.40D+00  3.00D+00
                    CP:  2.80D+00  3.00D+00  3.00D+00  1.56D+00
 E= -430.354296064282     Delta-E=       -0.000000147646 Rises=F Damp=F
 DIIS: error= 4.70D-06 at cycle  10 NSaved=  10.
 NSaved=10 IEnMin=10 EnMin= -430.354296064282     IErMin=10 ErrMin= 4.70D-06
 ErrMax= 4.70D-06  0.00D+00 EMaxC= 1.00D-01 BMatC= 5.63D-09 BMatP= 5.42D-08
 IDIUse=1 WtCom= 1.00D+00 WtEn= 0.00D+00
 Coeff-Com: -0.888D-04 0.118D-03 0.136D-03 0.652D-03 0.235D-02 0.483D-02
 Coeff-Com: -0.292D-02-0.594D-01 0.485D-01 0.101D+01
 Coeff:     -0.888D-04 0.118D-03 0.136D-03 0.652D-03 0.235D-02 0.483D-02
 Coeff:     -0.292D-02-0.594D-01 0.485D-01 0.101D+01
 Gap=     0.021 Goal=   None    Shift=    0.000
 Gap=     0.233 Goal=   None    Shift=    0.000
 RMSDP=5.14D-04 MaxDP=4.79D-02 DE=-1.48D-07 OVMax= 2.58D-04

 Cycle  11  Pass 1  IDiag  1:
 RMSU=  1.72D-05    CP:  1.02D+00  7.98D-01  8.49D-01  1.40D+00  3.00D+00
                    CP:  2.83D+00  3.00D+00  3.00D+00  1.67D+00  1.23D+00
 E= -430.354296072001     Delta-E=       -0.000000007719 Rises=F Damp=F
 DIIS: error= 5.31D-07 at cycle  11 NSaved=  11.
 NSaved=11 IEnMin=11 EnMin= -430.354296072001     IErMin=11 ErrMin= 5.31D-07
 ErrMax= 5.31D-07  0.00D+00 EMaxC= 1.00D-01 BMatC= 2.56D-10 BMatP= 5.63D-09
 IDIUse=1 WtCom= 1.00D+00 WtEn= 0.00D+00
 Coeff-Com:  0.192D-04-0.261D-04 0.409D-07-0.270D-03-0.639D-03 0.261D-03
 Coeff-Com:  0.274D-02 0.122D-01-0.599D-01-0.186D+00 0.123D+01
 Coeff:      0.192D-04-0.261D-04 0.409D-07-0.270D-03-0.639D-03 0.261D-03
 Coeff:      0.274D-02 0.122D-01-0.599D-01-0.186D+00 0.123D+01
 Gap=     0.021 Goal=   None    Shift=    0.000
 Gap=     0.233 Goal=   None    Shift=    0.000
 RMSDP=2.20D-04 MaxDP=2.04D-02 DE=-7.72D-09 OVMax= 1.05D-04

 Cycle  12  Pass 1  IDiag  1:
 RMSU=  7.90D-07    CP:  1.02D+00  7.97D-01  8.49D-01  1.40D+00  3.00D+00
                    CP:  2.84D+00  3.00D+00  3.00D+00  1.72D+00  1.32D+00
                    CP:  1.40D+00
 E= -430.354296072952     Delta-E=       -0.000000000951 Rises=F Damp=F
 DIIS: error= 2.21D-07 at cycle  12 NSaved=  12.
 NSaved=12 IEnMin=12 EnMin= -430.354296072952     IErMin=12 ErrMin= 2.21D-07
 ErrMax= 2.21D-07  0.00D+00 EMaxC= 1.00D-01 BMatC= 2.50D-11 BMatP= 2.56D-10
 IDIUse=1 WtCom= 1.00D+00 WtEn= 0.00D+00
 Coeff-Com:  0.762D-06-0.223D-05-0.192D-04 0.315D-04-0.144D-04-0.438D-03
 Coeff-Com: -0.525D-03 0.111D-02 0.140D-01-0.529D-01-0.267D+00 0.131D+01
 Coeff:      0.762D-06-0.223D-05-0.192D-04 0.315D-04-0.144D-04-0.438D-03
 Coeff:     -0.525D-03 0.111D-02 0.140D-01-0.529D-01-0.267D+00 0.131D+01
 Gap=     0.021 Goal=   None    Shift=    0.000
 Gap=     0.233 Goal=   None    Shift=    0.000
 RMSDP=8.78D-05 MaxDP=8.15D-03 DE=-9.51D-10 OVMax= 3.96D-05

 Cycle  13  Pass 1  IDiag  1:
 RMSU=  3.88D-07    CP:  1.02D+00  7.96D-01  8.49D-01  1.40D+00  3.00D+00
                    CP:  2.84D+00  3.00D+00  3.00D+00  1.74D+00  1.35D+00
                    CP:  1.56D+00  1.63D+00
 E= -430.354296073056     Delta-E=       -0.000000000104 Rises=F Damp=F
 DIIS: error= 4.41D-08 at cycle  13 NSaved=  13.
 NSaved=13 IEnMin=13 EnMin= -430.354296073056     IErMin=13 ErrMin= 4.41D-08
 ErrMax= 4.41D-08  0.00D+00 EMaxC= 1.00D-01 BMatC= 1.22D-12 BMatP= 2.50D-11
 IDIUse=1 WtCom= 1.00D+00 WtEn= 0.00D+00
 Coeff-Com: -0.141D-05 0.212D-05 0.244D-05 0.141D-04 0.429D-04 0.137D-04
 Coeff-Com: -0.180D-03-0.826D-03 0.395D-02 0.115D-01-0.539D-01-0.822D-01
 Coeff-Com:  0.112D+01
 Coeff:     -0.141D-05 0.212D-05 0.244D-05 0.141D-04 0.429D-04 0.137D-04
 Coeff:     -0.180D-03-0.826D-03 0.395D-02 0.115D-01-0.539D-01-0.822D-01
 Coeff:      0.112D+01
 Gap=     0.021 Goal=   None    Shift=    0.000
 Gap=     0.233 Goal=   None    Shift=    0.000
 RMSDP=1.44D-05 MaxDP=1.33D-03 DE=-1.04D-10 OVMax= 6.20D-06

 Cycle  14  Pass 1  IDiag  1:
 RMSU=  2.46D-08    CP:  1.02D+00  7.96D-01  8.49D-01  1.40D+00  3.00D+00
                    CP:  2.84D+00  3.00D+00  3.00D+00  1.74D+00  1.36D+00
                    CP:  1.59D+00  1.76D+00  1.33D+00
 E= -430.354296073058     Delta-E=       -0.000000000002 Rises=F Damp=F
 DIIS: error= 1.41D-08 at cycle  14 NSaved=  14.
 NSaved=14 IEnMin=14 EnMin= -430.354296073058     IErMin=14 ErrMin= 1.41D-08
 ErrMax= 1.41D-08  0.00D+00 EMaxC= 1.00D-01 BMatC= 7.33D-14 BMatP= 1.22D-12
 IDIUse=1 WtCom= 1.00D+00 WtEn= 0.00D+00
 Coeff-Com:  0.328D-06-0.530D-06 0.127D-05-0.286D-05-0.161D-05 0.175D-04
 Coeff-Com:  0.241D-04-0.196D-04-0.791D-03 0.183D-02 0.211D-01-0.882D-01
 Coeff-Com: -0.241D-01 0.109D+01
 Coeff:      0.328D-06-0.530D-06 0.127D-05-0.286D-05-0.161D-05 0.175D-04
 Coeff:      0.241D-04-0.196D-04-0.791D-03 0.183D-02 0.211D-01-0.882D-01
 Coeff:     -0.241D-01 0.109D+01
 Gap=     0.021 Goal=   None    Shift=    0.000
 Gap=     0.233 Goal=   None    Shift=    0.000
 RMSDP=3.32D-06 MaxDP=3.06D-04 DE=-2.16D-12 OVMax= 1.42D-06

 Cycle  15  Pass 1  IDiag  1:
 RMSU=  8.99D-09    CP:  1.02D+00  7.96D-01  8.49D-01  1.40D+00  3.00D+00
                    CP:  2.84D+00  3.00D+00  3.00D+00  1.74D+00  1.36D+00
                    CP:  1.59D+00  1.80D+00  1.42D+00  1.35D+00
 E= -430.354296073058     Delta-E=       -0.000000000000 Rises=F Damp=F
 DIIS: error= 4.90D-09 at cycle  15 NSaved=  15.
 NSaved=15 IEnMin=15 EnMin= -430.354296073058     IErMin=15 ErrMin= 4.90D-09
 ErrMax= 4.90D-09  0.00D+00 EMaxC= 1.00D-01 BMatC= 3.74D-15 BMatP= 7.33D-14
 IDIUse=1 WtCom= 1.00D+00 WtEn= 0.00D+00
 Coeff-Com:  0.268D-09 0.510D-08-0.153D-06 0.192D-06-0.837D-06-0.173D-05
 Coeff-Com:  0.421D-05 0.207D-04-0.730D-04-0.511D-03 0.329D-03 0.117D-01
 Coeff-Com: -0.515D-01-0.111D+00 0.115D+01
 Coeff:      0.268D-09 0.510D-08-0.153D-06 0.192D-06-0.837D-06-0.173D-05
 Coeff:      0.421D-05 0.207D-04-0.730D-04-0.511D-03 0.329D-03 0.117D-01
 Coeff:     -0.515D-01-0.111D+00 0.115D+01
 Gap=     0.021 Goal=   None    Shift=    0.000
 Gap=     0.233 Goal=   None    Shift=    0.000
 RMSDP=3.86D-07 MaxDP=3.60D-05 DE=-2.27D-13 OVMax= 1.71D-07

 Cycle  16  Pass 1  IDiag  1:
 RMSU=  1.05D-08    CP:  1.02D+00  7.96D-01  8.49D-01  1.40D+00  3.00D+00
                    CP:  2.84D+00  3.00D+00  3.00D+00  1.74D+00  1.36D+00
                    CP:  1.59D+00  1.80D+00  1.42D+00  1.31D+00  1.57D-01
 E= -430.354296073055     Delta-E=        0.000000000003 Rises=F Damp=F
 DIIS: error= 2.08D-09 at cycle  16 NSaved=  16.
 NSaved=16 IEnMin=15 EnMin= -430.354296073058     IErMin=16 ErrMin= 2.08D-09
 ErrMax= 2.08D-09  0.00D+00 EMaxC= 1.00D-01 BMatC= 7.06D-16 BMatP= 3.74D-15
 IDIUse=1 WtCom= 1.00D+00 WtEn= 0.00D+00
 Large coefficients: NSaved= 16 BigCof=    0.00 CofMax=   10.00 Det=-1.69D-15
 Inversion failed.  Reducing to 15 matrices.
 Coeff-Com:  0.221D-08-0.956D-07 0.897D-07-0.384D-06-0.122D-05 0.601D-06
 Coeff-Com:  0.115D-04-0.425D-05-0.287D-03-0.385D-03 0.680D-02-0.163D-01
 Coeff-Com: -0.727D-01 0.360D+00 0.723D+00
 Coeff:      0.221D-08-0.956D-07 0.897D-07-0.384D-06-0.122D-05 0.601D-06
 Coeff:      0.115D-04-0.425D-05-0.287D-03-0.385D-03 0.680D-02-0.163D-01
 Coeff:     -0.727D-01 0.360D+00 0.723D+00
 Gap=     0.021 Goal=   None    Shift=    0.000
 Gap=     0.233 Goal=   None    Shift=    0.000
 RMSDP=2.69D-08 MaxDP=1.64D-06 DE= 2.96D-12 OVMax= 6.12D-08

 Cycle  17  Pass 1  IDiag  1:
 RMSU=  4.69D-09    CP:  1.02D+00  7.96D-01  8.49D-01  1.40D+00  3.00D+00
                    CP:  2.84D+00  3.00D+00  3.00D+00  1.74D+00  1.36D+00
                    CP:  1.59D+00  1.80D+00  1.42D+00  1.46D+00  1.97D+00
                    CP: -5.71D-01
 E= -430.354296073059     Delta-E=       -0.000000000004 Rises=F Damp=F
 DIIS: error= 2.79D-09 at cycle  17 NSaved=  16.
 NSaved=16 IEnMin=16 EnMin= -430.354296073059     IErMin=15 ErrMin= 2.08D-09
 ErrMax= 2.79D-09  0.00D+00 EMaxC= 1.00D-01 BMatC= 1.01D-15 BMatP= 7.06D-16
 IDIUse=1 WtCom= 1.00D+00 WtEn= 0.00D+00
 Large coefficients: NSaved= 16 BigCof=    0.00 CofMax=   10.00 Det=-8.83D-16
 Inversion failed.  Reducing to 15 matrices.
 Coeff-Com: -0.265D-07-0.187D-07-0.537D-07-0.310D-06-0.897D-06 0.265D-05
 Coeff-Com:  0.202D-04-0.627D-04-0.401D-03 0.140D-02 0.520D-02-0.206D-01
 Coeff-Com: -0.121D+00 0.621D+00 0.513D+00
 Coeff:     -0.265D-07-0.187D-07-0.537D-07-0.310D-06-0.897D-06 0.265D-05
 Coeff:      0.202D-04-0.627D-04-0.401D-03 0.140D-02 0.520D-02-0.206D-01
 Coeff:     -0.121D+00 0.621D+00 0.513D+00
 Gap=     0.021 Goal=   None    Shift=    0.000
 Gap=     0.233 Goal=   None    Shift=    0.000
 RMSDP=1.61D-08 MaxDP=9.10D-07 DE=-4.43D-12 OVMax= 3.77D-08

 Cycle  18  Pass 1  IDiag  1:
 RMSU=  2.52D-09    CP:  1.02D+00  7.96D-01  8.49D-01  1.40D+00  3.00D+00
                    CP:  2.84D+00  3.00D+00  3.00D+00  1.74D+00  1.36D+00
                    CP:  1.59D+00  1.80D+00  1.42D+00  1.36D+00  9.05D-01
                    CP:  3.11D-01  3.20D-01
 E= -430.354296073059     Delta-E=        0.000000000000 Rises=F Damp=F
 DIIS: error= 1.47D-10 at cycle  18 NSaved=  16.
 NSaved=16 IEnMin=15 EnMin= -430.354296073059     IErMin=16 ErrMin= 1.47D-10
 ErrMax= 1.47D-10  0.00D+00 EMaxC= 1.00D-01 BMatC= 6.50D-18 BMatP= 7.06D-16
 IDIUse=1 WtCom= 1.00D+00 WtEn= 0.00D+00
 Large coefficients: NSaved= 16 BigCof=    0.00 CofMax=   10.00 Det=-6.90D-17
 Inversion failed.  Reducing to 15 matrices.
 Coeff-Com: -0.121D-07 0.430D-08 0.397D-07-0.108D-06-0.220D-06 0.281D-05
 Coeff-Com:  0.366D-05-0.487D-04-0.170D-03 0.198D-02-0.594D-03-0.441D-01
 Coeff-Com:  0.979D-01 0.113D+00 0.832D+00
 Coeff:     -0.121D-07 0.430D-08 0.397D-07-0.108D-06-0.220D-06 0.281D-05
 Coeff:      0.366D-05-0.487D-04-0.170D-03 0.198D-02-0.594D-03-0.441D-01
 Coeff:      0.979D-01 0.113D+00 0.832D+00
 Gap=     0.021 Goal=   None    Shift=    0.000
 Gap=     0.233 Goal=   None    Shift=    0.000
 RMSDP=8.60D-09 MaxDP=9.82D-07 DE= 1.14D-13 OVMax= 5.86D-09

 SCF Done:  E(UPBE1PBE) =  -430.354296073     A.U. after   18 cycles
            NFock= 18  Conv=0.86D-08     -V/T= 2.0029
 <Sx>= 0.0000 <Sy>= 0.0000 <Sz>= 0.5000 <S**2>= 0.7500 S= 0.5000
 <L.S>=  0.00000000000    
 KE= 4.290917684790D+02 PE=-1.703902240238D+03 EE= 5.021109261735D+02
 Annihilation of the first spin contaminant:
 S**2 before annihilation     0.7500,   after     0.7500
 Leave Link  502 at Wed Jan 29 15:47:18 2025, MaxMem=   104857600 cpu:              69.4 elap:              69.8
 (Enter /sw/cluster/pub/apps//g16/l601.exe)
 Copying SCF densities to generalized density rwf, IOpCl= 1 IROHF=0.

 **********************************************************************

            Population analysis using the SCF density.

 **********************************************************************

 Alpha  occ. eigenvalues --  -24.67576 -24.67576 -10.20512 -10.20511 -10.13293
 Alpha  occ. eigenvalues --  -10.13291 -10.13231 -10.13231  -1.15979  -1.15968
 Alpha  occ. eigenvalues --   -0.79578  -0.68735  -0.67182  -0.55749  -0.53816
 Alpha  occ. eigenvalues --   -0.46820  -0.45571  -0.43193  -0.38952  -0.38047
 Alpha  occ. eigenvalues --   -0.36438  -0.34896  -0.34831  -0.33054  -0.29482
 Alpha  occ. eigenvalues --   -0.26975  -0.25829  -0.17627  -0.15007   0.05152
 Alpha virt. eigenvalues --    0.07203   0.08285   0.08974   0.10158   0.10550
 Alpha virt. eigenvalues --    0.12964   0.15754   0.16033   0.17492   0.18195
 Alpha virt. eigenvalues --    0.18702   0.19725   0.20315   0.20830   0.20996
 Alpha virt. eigenvalues --    0.22348   0.22513   0.23040   0.23120   0.23667
 Alpha virt. eigenvalues --    0.24279   0.24785   0.25176   0.26414   0.27199
 Alpha virt. eigenvalues --    0.27932   0.29092   0.29487   0.30796   0.31904
 Alpha virt. eigenvalues --    0.33273   0.36146   0.36994   0.37572   0.39598
 Alpha virt. eigenvalues --    0.39627   0.41242   0.41602   0.45381   0.45545
 Alpha virt. eigenvalues --    0.45770   0.46139   0.48010   0.49927   0.52315
 Alpha virt. eigenvalues --    0.52618   0.52711   0.56621   0.62151   0.62835
 Alpha virt. eigenvalues --    0.63668   0.65412   0.66603   0.68054   0.69216
 Alpha virt. eigenvalues --    0.69606   0.70729   0.72768   0.73161   0.73402
 Alpha virt. eigenvalues --    0.77535   0.79933   0.83483   0.87490   0.89164
 Alpha virt. eigenvalues --    0.90367   0.91471   0.95510   0.96934   0.99107
 Alpha virt. eigenvalues --    0.99791   0.99911   1.00918   1.05871   1.09832
 Alpha virt. eigenvalues --    1.09921   1.10637   1.13001   1.15422   1.17697
 Alpha virt. eigenvalues --    1.23117   1.27536   1.30178   1.39193   1.45973
 Alpha virt. eigenvalues --    1.53362   1.55159   1.55922   1.55989   1.56011
 Alpha virt. eigenvalues --    1.61442   1.64816   1.65262   1.66997   1.67207
 Alpha virt. eigenvalues --    1.72537   1.72577   1.72680   1.74998   1.79371
 Alpha virt. eigenvalues --    1.83863   1.85434   1.87953   2.01839   2.02290
 Alpha virt. eigenvalues --    2.02429   2.02856   2.03879   2.06264   2.07693
 Alpha virt. eigenvalues --    2.16163   2.18161   2.19209   2.19294   2.19331
 Alpha virt. eigenvalues --    2.21805   2.32537   2.39604   2.42777   2.43980
 Alpha virt. eigenvalues --    2.53460   2.58626   2.73668   2.76043   2.76212
 Alpha virt. eigenvalues --    2.81150   2.82037   2.83357   2.87610   2.87647
 Alpha virt. eigenvalues --    2.87917   2.88926   2.92084   2.98300   3.01797
 Alpha virt. eigenvalues --    3.08737   3.20639   3.23415   3.27436   3.35152
 Alpha virt. eigenvalues --    3.47730   3.51630   3.61687   3.73680   3.78714
 Alpha virt. eigenvalues --    3.89813   3.90792   3.91220   3.96327   4.00748
 Alpha virt. eigenvalues --    4.11070   4.12174   4.12605   4.22945   4.27885
 Alpha virt. eigenvalues --    4.28150   4.30927   4.98252   4.99451   5.02128
 Alpha virt. eigenvalues --    6.45894   6.48953   6.58993   6.61682   6.85596
 Alpha virt. eigenvalues --    6.96537  23.74853  24.08822  24.19325  24.27627
 Alpha virt. eigenvalues --   24.31759  24.40836  67.05504  67.07885
  Beta  occ. eigenvalues --  -24.67571 -24.67571 -10.20517 -10.20515 -10.13269
  Beta  occ. eigenvalues --  -10.13267 -10.13207 -10.13207  -1.15972  -1.15961
  Beta  occ. eigenvalues --   -0.79544  -0.68682  -0.67147  -0.55674  -0.53781
  Beta  occ. eigenvalues --   -0.46735  -0.45523  -0.43168  -0.38943  -0.38043
  Beta  occ. eigenvalues --   -0.36348  -0.34863  -0.34745  -0.32974  -0.29454
  Beta  occ. eigenvalues --   -0.26944  -0.25767  -0.17585  -0.14994
  Beta virt. eigenvalues --    0.08346   0.09549   0.10469   0.10603   0.11011
  Beta virt. eigenvalues --    0.12866   0.13780   0.16459   0.17317   0.17995
  Beta virt. eigenvalues --    0.18557   0.18914   0.20261   0.21766   0.21902
  Beta virt. eigenvalues --    0.22440   0.22901   0.23520   0.23767   0.23944
  Beta virt. eigenvalues --    0.24837   0.24844   0.24980   0.25827   0.26940
  Beta virt. eigenvalues --    0.27775   0.29321   0.29565   0.30543   0.31392
  Beta virt. eigenvalues --    0.32069   0.35000   0.36733   0.37407   0.38398
  Beta virt. eigenvalues --    0.40042   0.40495   0.41832   0.42005   0.45950
  Beta virt. eigenvalues --    0.46082   0.46099   0.46907   0.48549   0.50446
  Beta virt. eigenvalues --    0.52727   0.52997   0.53080   0.56922   0.62370
  Beta virt. eigenvalues --    0.63025   0.63907   0.65530   0.66878   0.68303
  Beta virt. eigenvalues --    0.69370   0.69852   0.70883   0.72983   0.73380
  Beta virt. eigenvalues --    0.73537   0.77697   0.80174   0.83620   0.87780
  Beta virt. eigenvalues --    0.89438   0.90692   0.91730   0.95789   0.97100
  Beta virt. eigenvalues --    0.99463   0.99948   1.00109   1.01133   1.06050
  Beta virt. eigenvalues --    1.09846   1.10106   1.10690   1.13131   1.15543
  Beta virt. eigenvalues --    1.17749   1.23143   1.27573   1.30214   1.39389
  Beta virt. eigenvalues --    1.46098   1.53469   1.55310   1.55999   1.56113
  Beta virt. eigenvalues --    1.56175   1.61558   1.64899   1.65365   1.67065
  Beta virt. eigenvalues --    1.67268   1.72632   1.72649   1.72753   1.75077
  Beta virt. eigenvalues --    1.79427   1.83959   1.85517   1.88059   2.01909
  Beta virt. eigenvalues --    2.02331   2.02446   2.02987   2.03932   2.06331
  Beta virt. eigenvalues --    2.07766   2.16246   2.18244   2.19315   2.19340
  Beta virt. eigenvalues --    2.19419   2.21870   2.32609   2.39667   2.42834
  Beta virt. eigenvalues --    2.44005   2.53550   2.58753   2.73746   2.76082
  Beta virt. eigenvalues --    2.76289   2.81234   2.82185   2.83516   2.87636
  Beta virt. eigenvalues --    2.87814   2.88057   2.88991   2.92143   2.98331
  Beta virt. eigenvalues --    3.01835   3.08829   3.20670   3.23444   3.27465
  Beta virt. eigenvalues --    3.35178   3.47762   3.51670   3.61749   3.73734
  Beta virt. eigenvalues --    3.78772   3.89835   3.90788   3.91216   3.96331
  Beta virt. eigenvalues --    4.00768   4.11082   4.12187   4.12691   4.22963
  Beta virt. eigenvalues --    4.27923   4.28167   4.30989   4.98271   4.99480
  Beta virt. eigenvalues --    5.02156   6.45910   6.48971   6.59004   6.61692
  Beta virt. eigenvalues --    6.85631   6.96574  23.74869  24.08826  24.19353
  Beta virt. eigenvalues --   24.27638  24.31786  24.40857  67.05508  67.07890
          Condensed to atoms (all electrons):
               1          2          3          4          5          6
     1  C   12.047863  -1.253225  -0.511426  -0.559544  -1.838886  -1.779750
     2  C   -1.253225  12.047863  -1.779750  -1.838886  -0.559544  -0.511425
     3  C   -0.511426  -1.779750  24.317824  -1.779750  -0.511426  11.200148
     4  C   -0.559544  -1.838886  -1.779750  12.047863  -1.253225  -0.511425
     5  C   -1.838886  -0.559544  -0.511426  -1.253225  12.047863  -1.779750
     6  C   -1.779750  -0.511425  11.200148  -0.511425  -1.779750  24.317825
     7  H   -2.028566  -0.542359  -5.142793   1.403804   0.726021  -7.002327
     8  H   -0.542359  -2.028566  -7.002327   0.726020   1.403804  -5.142793
     9  H    1.403804   0.726020  -7.002327  -2.028566  -0.542359  -5.142793
    10  H    0.726021   1.403804  -5.142793  -0.542359  -2.028566  -7.002327
    11  F    0.282291  -0.470190  -0.411602  -0.470190   0.282291  -0.604894
    12  F   -0.470190   0.282291  -0.604894   0.282291  -0.470190  -0.411602
               7          8          9         10         11         12
     1  C   -2.028566  -0.542359   1.403804   0.726021   0.282291  -0.470190
     2  C   -0.542359  -2.028566   0.726020   1.403804  -0.470190   0.282291
     3  C   -5.142793  -7.002327  -7.002327  -5.142793  -0.411602  -0.604894
     4  C    1.403804   0.726020  -2.028566  -0.542359  -0.470190   0.282291
     5  C    0.726021   1.403804  -0.542359  -2.028566   0.282291  -0.470190
     6  C   -7.002327  -5.142793  -5.142793  -7.002327  -0.604894  -0.411602
     7  H    6.783199   4.059185   1.186132   1.806788   0.171551   0.446788
     8  H    4.059185   6.783199   1.806788   1.186132   0.446788   0.171551
     9  H    1.186132   1.806788   6.783199   4.059185   0.446788   0.171551
    10  H    1.806788   1.186132   4.059185   6.783199   0.171551   0.446788
    11  F    0.171551   0.446788   0.446788   0.171551   9.335395   0.004424
    12  F    0.446788   0.171551   0.171551   0.446788   0.004424   9.335395
          Atomic-Atomic Spin Densities.
               1          2          3          4          5          6
     1  C    2.649167   0.362188  -1.686432  -0.640238  -0.165991  -0.154145
     2  C    0.362188   2.649167  -0.154144  -0.165991  -0.640238  -1.686432
     3  C   -1.686432  -0.154144  15.466050  -0.154145  -1.686432  12.891482
     4  C   -0.640238  -0.165991  -0.154145   2.649167   0.362188  -1.686432
     5  C   -0.165991  -0.640238  -1.686432   0.362188   2.649167  -0.154145
     6  C   -0.154145  -1.686432  12.891482  -1.686432  -0.154145  15.466051
     7  H   -2.621948  -0.442413  -5.218816   1.362271   0.820292  -6.789460
     8  H   -0.442412  -2.621948  -6.789459   0.820292   1.362272  -5.218816
     9  H    1.362272   0.820292  -6.789459  -2.621948  -0.442412  -5.218816
    10  H    0.820292   1.362271  -5.218816  -0.442413  -2.621948  -6.789460
    11  F    0.225411  -0.099635  -1.132990  -0.099635   0.225411  -0.554320
    12  F   -0.099635   0.225411  -0.554320   0.225411  -0.099635  -1.132991
               7          8          9         10         11         12
     1  C   -2.621948  -0.442412   1.362272   0.820292   0.225411  -0.099635
     2  C   -0.442413  -2.621948   0.820292   1.362271  -0.099635   0.225411
     3  C   -5.218816  -6.789459  -6.789459  -5.218816  -1.132990  -0.554320
     4  C    1.362271   0.820292  -2.621948  -0.442413  -0.099635   0.225411
     5  C    0.820292   1.362272  -0.442412  -2.621948   0.225411  -0.099635
     6  C   -6.789460  -5.218816  -5.218816  -6.789460  -0.554320  -1.132991
     7  H    6.326808   4.071250   1.184127   1.809005   0.170147   0.472397
     8  H    4.071250   6.326808   1.809005   1.184127   0.472397   0.170147
     9  H    1.184127   1.809005   6.326808   4.071250   0.472397   0.170147
    10  H    1.809005   1.184127   4.071250   6.326808   0.170147   0.472397
    11  F    0.170147   0.472397   0.472397   0.170147   0.169504   0.004265
    12  F    0.472397   0.170147   0.170147   0.472397   0.004265   0.169504
 Mulliken charges and spin densities:
               1          2
     1  C    0.523968  -0.391471
     2  C    0.523968  -0.391471
     3  C    0.371114  -1.027482
     4  C    0.523968  -0.391471
     5  C    0.523968  -0.391471
     6  C    0.371114  -1.027482
     7  H   -0.867423   1.143663
     8  H   -0.867423   1.143663
     9  H   -0.867423   1.143663
    10  H   -0.867423   1.143663
    11  F   -0.184204   0.023099
    12  F   -0.184204   0.023099
 Sum of Mulliken charges =  -1.00000   1.00000
 Mulliken charges and spin densities with hydrogens summed into heavy atoms:
               1          2
     1  C   -0.343455   0.752192
     2  C   -0.343455   0.752192
     3  C    0.371114  -1.027482
     4  C   -0.343455   0.752192
     5  C   -0.343455   0.752192
     6  C    0.371114  -1.027482
    11  F   -0.184204   0.023099
    12  F   -0.184204   0.023099
 Electronic spatial extent (au):  <R**2>=            993.0440
 Charge=             -1.0000 electrons
 Dipole moment (field-independent basis, Debye):
    X=             -0.0000    Y=             -0.0000    Z=             -0.0000  Tot=              0.0000
 Quadrupole moment (field-independent basis, Debye-Ang):
   XX=           -105.8463   YY=            -81.4243   ZZ=            -64.6029
   XY=             -0.0000   XZ=             -0.0000   YZ=              0.0000
 Traceless Quadrupole moment (field-independent basis, Debye-Ang):
   XX=            -21.8885   YY=              2.5336   ZZ=             19.3550
   XY=             -0.0000   XZ=             -0.0000   YZ=              0.0000
 Octapole moment (field-independent basis, Debye-Ang**2):
  XXX=             -0.0000  YYY=             -0.0000  ZZZ=             -0.0000  XYY=             -0.0000
  XXY=             -0.0000  XXZ=             -0.0000  XZZ=             -0.0000  YZZ=             -0.0000
  YYZ=              0.0000  XYZ=             -0.0000
 Hexadecapole moment (field-independent basis, Debye-Ang**3):
 XXXX=          -1789.9458 YYYY=          -1210.2081 ZZZZ=           -224.5099 XXXY=             -0.0000
 XXXZ=             -0.0000 YYYX=             -0.0000 YYYZ=              0.0000 ZZZX=             -0.0000
 ZZZY=              0.0000 XXYY=           -477.7545 XXZZ=           -262.9072 YYZZ=           -210.2375
 XXYZ=             -0.0000 YYXZ=             -0.0000 ZZXY=             -0.0000
 N-N= 3.423452495129D+02 E-N=-1.703902240243D+03  KE= 4.290917684790D+02
                          Isotropic Fermi Contact Couplings
        Atom                 a.u.       MegaHertz       Gauss      10(-4) cm-1
     1  C(13)              0.01766      19.85288       7.08400       6.62221
     2  C(13)              0.01766      19.85288       7.08400       6.62221
     3  C(13)             -0.00081      -0.90713      -0.32369      -0.30259
     4  C(13)              0.01766      19.85288       7.08400       6.62221
     5  C(13)              0.01766      19.85288       7.08400       6.62221
     6  C(13)             -0.00081      -0.90713      -0.32369      -0.30259
     7  H(1)              -0.00051      -2.26947      -0.80980      -0.75701
     8  H(1)              -0.00051      -2.26947      -0.80980      -0.75701
     9  H(1)              -0.00051      -2.26947      -0.80980      -0.75701
    10  H(1)              -0.00051      -2.26947      -0.80980      -0.75701
    11  F(19)              0.00146       6.13934       2.19067       2.04786
    12  F(19)              0.00146       6.13934       2.19067       2.04786
 --------------------------------------------------------
       Center         ----  Spin Dipole Couplings  ----
                      3XX-RR        3YY-RR        3ZZ-RR
 --------------------------------------------------------
     1   Atom        0.001512      0.002745     -0.004256
     2   Atom        0.001512      0.002745     -0.004256
     3   Atom        0.002142      0.000021     -0.002163
     4   Atom        0.001512      0.002745     -0.004256
     5   Atom        0.001512      0.002745     -0.004256
     6   Atom        0.002142      0.000021     -0.002163
     7   Atom        0.003958     -0.001326     -0.002633
     8   Atom        0.003958     -0.001326     -0.002633
     9   Atom        0.003958     -0.001326     -0.002633
    10   Atom        0.003958     -0.001326     -0.002633
    11   Atom       -0.006413      0.015714     -0.009301
    12   Atom       -0.006413      0.015714     -0.009301
 --------------------------------------------------------
                        XY            XZ            YZ
 --------------------------------------------------------
     1   Atom        0.004090     -0.000000     -0.000000
     2   Atom       -0.004090      0.000000     -0.000000
     3   Atom        0.000000     -0.000000      0.000000
     4   Atom        0.004090      0.000000      0.000000
     5   Atom       -0.004090     -0.000000      0.000000
     6   Atom       -0.000000      0.000000      0.000000
     7   Atom        0.001450      0.000000      0.000000
     8   Atom       -0.001450     -0.000000      0.000000
     9   Atom        0.001450     -0.000000     -0.000000
    10   Atom       -0.001450      0.000000     -0.000000
    11   Atom       -0.000000     -0.000000     -0.000000
    12   Atom        0.000000      0.000000     -0.000000
 --------------------------------------------------------


 ---------------------------------------------------------------------------------
              Anisotropic Spin Dipole Couplings in Principal Axis System
 ---------------------------------------------------------------------------------

       Atom             a.u.   MegaHertz   Gauss  10(-4) cm-1        Axes

              Baa    -0.0043    -0.571    -0.204    -0.191  0.0000  0.0000  1.0000
     1 C(13)  Bbb    -0.0020    -0.269    -0.096    -0.090  0.7580 -0.6523 -0.0000
              Bcc     0.0063     0.841     0.300     0.280  0.6523  0.7580 -0.0000
 
              Baa    -0.0043    -0.571    -0.204    -0.191 -0.0000  0.0000  1.0000
     2 C(13)  Bbb    -0.0020    -0.269    -0.096    -0.090  0.7580  0.6523  0.0000
              Bcc     0.0063     0.841     0.300     0.280 -0.6523  0.7580 -0.0000
 
              Baa    -0.0022    -0.290    -0.104    -0.097  0.0000 -0.0000  1.0000
     3 C(13)  Bbb     0.0000     0.003     0.001     0.001 -0.0000  1.0000  0.0000
              Bcc     0.0021     0.287     0.103     0.096  1.0000  0.0000 -0.0000
 
              Baa    -0.0043    -0.571    -0.204    -0.191 -0.0000 -0.0000  1.0000
     4 C(13)  Bbb    -0.0020    -0.269    -0.096    -0.090  0.7580 -0.6523  0.0000
              Bcc     0.0063     0.841     0.300     0.280  0.6523  0.7580  0.0000
 
              Baa    -0.0043    -0.571    -0.204    -0.191  0.0000 -0.0000  1.0000
     5 C(13)  Bbb    -0.0020    -0.269    -0.096    -0.090  0.7580  0.6523 -0.0000
              Bcc     0.0063     0.841     0.300     0.280 -0.6523  0.7580  0.0000
 
              Baa    -0.0022    -0.290    -0.104    -0.097 -0.0000 -0.0000  1.0000
     6 C(13)  Bbb     0.0000     0.003     0.001     0.001  0.0000  1.0000  0.0000
              Bcc     0.0021     0.287     0.103     0.096  1.0000 -0.0000  0.0000
 
              Baa    -0.0026    -1.405    -0.501    -0.469 -0.0000 -0.0000  1.0000
     7 H(1)   Bbb    -0.0017    -0.906    -0.323    -0.302 -0.2483  0.9687  0.0000
              Bcc     0.0043     2.310     0.824     0.771  0.9687  0.2483  0.0000
 
              Baa    -0.0026    -1.405    -0.501    -0.469  0.0000 -0.0000  1.0000
     8 H(1)   Bbb    -0.0017    -0.906    -0.323    -0.302  0.2483  0.9687  0.0000
              Bcc     0.0043     2.310     0.824     0.771  0.9687 -0.2483 -0.0000
 
              Baa    -0.0026    -1.405    -0.501    -0.469  0.0000  0.0000  1.0000
     9 H(1)   Bbb    -0.0017    -0.906    -0.323    -0.302 -0.2483  0.9687 -0.0000
              Bcc     0.0043     2.310     0.824     0.771  0.9687  0.2483 -0.0000
 
              Baa    -0.0026    -1.405    -0.501    -0.469 -0.0000  0.0000  1.0000
    10 H(1)   Bbb    -0.0017    -0.906    -0.323    -0.302  0.2483  0.9687 -0.0000
              Bcc     0.0043     2.310     0.824     0.771  0.9687 -0.2483  0.0000
 
              Baa    -0.0093    -4.671    -1.667    -1.558  0.0000  0.0000  1.0000
    11 F(19)  Bbb    -0.0064    -3.221    -1.149    -1.074  1.0000  0.0000 -0.0000
              Bcc     0.0157     7.892     2.816     2.633 -0.0000  1.0000 -0.0000
 
              Baa    -0.0093    -4.671    -1.667    -1.558 -0.0000  0.0000  1.0000
    12 F(19)  Bbb    -0.0064    -3.221    -1.149    -1.074  1.0000 -0.0000  0.0000
              Bcc     0.0157     7.892     2.816     2.633  0.0000  1.0000 -0.0000
 

 ---------------------------------------------------------------------------------

 No NMR shielding tensors so no spin-rotation constants.
 Leave Link  601 at Wed Jan 29 15:47:18 2025, MaxMem=   104857600 cpu:               0.1 elap:               0.2
 (Enter /sw/cluster/pub/apps//g16/l701.exe)
 ... and contract with generalized density number  0.
 Compute integral first derivatives.
 Leave Link  701 at Wed Jan 29 15:47:18 2025, MaxMem=   104857600 cpu:               0.1 elap:               0.1
 (Enter /sw/cluster/pub/apps//g16/l702.exe)
 L702 exits ... SP integral derivatives will be done elsewhere.
 Leave Link  702 at Wed Jan 29 15:47:19 2025, MaxMem=   104857600 cpu:               0.0 elap:               0.0
 (Enter /sw/cluster/pub/apps//g16/l703.exe)
 Integral derivatives from FoFJK, PRISM(SPDF).
 Compute integral first derivatives, UseDBF=F ICtDFT=           0.
 Calling FoFJK, ICntrl=      2127 FMM=F ISym2X=0 I1Cent= 0 IOpClX= 1 NMat=1 NMatS=1 NMatT=0.
 FoFJK:  IHMeth= 1 ICntrl=    2127 DoSepK=F KAlg= 0 I1Cent=           0 FoldK=F
 IRaf=         0 NMat=       1 IRICut=       1 DoRegI=T DoRafI=F ISym2E= 0 IDoP0=0 IntGTp=1.
 FoFCou: FMM=F IPFlag=           0 FMFlag=      100000 FMFlg1=         800
         NFxFlg=           0 DoJE=F BraDBF=F KetDBF=F FulRan=T
         wScrn=  0.000000 ICntrl=      2127 IOpCl=  1 I1Cent=           0 NGrid=           0
         NMat0=    1 NMatS0=      1 NMatT0=    0 NMatD0=    1 NMtDS0=    0 NMtDT0=    0
 Symmetry not used in FoFCou.
 Leave Link  703 at Wed Jan 29 15:47:28 2025, MaxMem=   104857600 cpu:               9.8 elap:               9.8
 (Enter /sw/cluster/pub/apps//g16/l716.exe)
 Dipole        =-1.90127700D-08-1.69341225D-08-2.00074288D-14
 -------------------------------------------------------------------
 Center     Atomic                   Forces (Hartrees/Bohr)
 Number     Number              X              Y              Z
 -------------------------------------------------------------------
      1        6          -0.001302165    0.000068151   -0.000000000
      2        6          -0.001302166   -0.000068151    0.000000000
      3        6          -0.000000000    0.005982683   -0.000000000
      4        6           0.001302165   -0.000068151    0.000000000
      5        6           0.001302165    0.000068151   -0.000000000
      6        6          -0.000000000   -0.005982683    0.000000000
      7        1           0.002104420   -0.000195796   -0.000000000
      8        1           0.002104420    0.000195796    0.000000000
      9        1          -0.002104420    0.000195797   -0.000000000
     10        1          -0.002104420   -0.000195796    0.000000000
     11        9           0.000000000   -0.004033103   -0.000000000
     12        9           0.000000000    0.004033104    0.000000000
 -------------------------------------------------------------------
 Cartesian Forces:  Max     0.005982683 RMS     0.001891396
 Leave Link  716 at Wed Jan 29 15:47:29 2025, MaxMem=   104857600 cpu:               0.0 elap:               0.0
 (Enter /sw/cluster/pub/apps//g16/l103.exe)

 GradGradGradGradGradGradGradGradGradGradGradGradGradGradGradGradGradGrad
 Berny optimization.
 FormGI is forming the generalized inverse of G from B-inverse, IUseBI=4.
 Internal  Forces:  Max     0.004033104 RMS     0.001083620
 Search for a local minimum.
 Step number   1 out of a maximum of   64
 All quantities printed in internal units (Hartrees-Bohrs-Radians)
 RMS Force = .10836D-02 SwitMx=.10000D-02 MixMth= 1
 Mixed Optimization -- RFO/linear search
 Second derivative matrix not updated -- first step.
 ITU=  0
     Eigenvalues ---    0.02250   0.02251   0.02264   0.02264   0.02278
     Eigenvalues ---    0.02280   0.02307   0.02307   0.02307   0.16000
     Eigenvalues ---    0.16000   0.16000   0.16000   0.22000   0.23008
     Eigenvalues ---    0.24000   0.25000   0.25000   0.35564   0.35564
     Eigenvalues ---    0.35564   0.35564   0.43186   0.43944   0.47329
     Eigenvalues ---    0.48157   0.48473   0.48473   0.56359   0.56359
 RFO step:  Lambda=-1.92951258D-04 EMin= 2.24971908D-02
 Linear search not attempted -- first point.
 Iteration  1 RMS(Cart)=  0.00513604 RMS(Int)=  0.00001569
 Iteration  2 RMS(Cart)=  0.00001748 RMS(Int)=  0.00000000
 Iteration  3 RMS(Cart)=  0.00000000 RMS(Int)=  0.00000000
 ITry= 1 IFail=0 DXMaxC= 1.44D-02 DCOld= 1.00D+10 DXMaxT= 3.00D-01 DXLimC= 3.00D+00 Rises=F
 Variable       Old X    -DE/DX   Delta X   Delta X   Delta X     New X
                                 (Linear)    (Quad)   (Total)
    R1        2.62661  -0.00110   0.00000  -0.00233  -0.00233   2.62428
    R2        2.61438   0.00023   0.00000   0.00048   0.00048   2.61486
    R3        2.04768   0.00170   0.00000   0.00477   0.00477   2.05245
    R4        2.61438   0.00023   0.00000   0.00048   0.00048   2.61486
    R5        2.04768   0.00170   0.00000   0.00477   0.00477   2.05245
    R6        2.61438   0.00023   0.00000   0.00048   0.00048   2.61486
    R7        2.53944   0.00403   0.00000   0.00715   0.00715   2.54659
    R8        2.62661  -0.00110   0.00000  -0.00233  -0.00233   2.62428
    R9        2.04768   0.00170   0.00000   0.00477   0.00477   2.05245
   R10        2.61438   0.00023   0.00000   0.00048   0.00048   2.61486
   R11        2.04768   0.00170   0.00000   0.00477   0.00477   2.05245
   R12        2.53944   0.00403   0.00000   0.00715   0.00715   2.54659
    A1        2.07514  -0.00043   0.00000  -0.00181  -0.00181   2.07334
    A2        2.11712  -0.00107   0.00000  -0.00715  -0.00715   2.10996
    A3        2.09092   0.00151   0.00000   0.00896   0.00896   2.09988
    A4        2.07514  -0.00043   0.00000  -0.00181  -0.00181   2.07334
    A5        2.11712  -0.00107   0.00000  -0.00715  -0.00715   2.10996
    A6        2.09092   0.00151   0.00000   0.00896   0.00896   2.09988
    A7        2.13290   0.00087   0.00000   0.00362   0.00362   2.13651
    A8        2.07514  -0.00043   0.00000  -0.00181  -0.00181   2.07334
    A9        2.07514  -0.00043   0.00000  -0.00181  -0.00181   2.07334
   A10        2.07514  -0.00043   0.00000  -0.00181  -0.00181   2.07334
   A11        2.09092   0.00151   0.00000   0.00896   0.00896   2.09988
   A12        2.11712  -0.00107   0.00000  -0.00715  -0.00715   2.10996
   A13        2.07514  -0.00043   0.00000  -0.00181  -0.00181   2.07334
   A14        2.11712  -0.00107   0.00000  -0.00715  -0.00715   2.10996
   A15        2.09092   0.00151   0.00000   0.00896   0.00896   2.09988
   A16        2.13290   0.00087   0.00000   0.00362   0.00362   2.13651
   A17        2.07514  -0.00043   0.00000  -0.00181  -0.00181   2.07334
   A18        2.07514  -0.00043   0.00000  -0.00181  -0.00181   2.07334
    D1       -0.00000   0.00000   0.00000   0.00000   0.00000   0.00000
    D2        3.14159   0.00000   0.00000   0.00000   0.00000   3.14159
    D3        3.14159   0.00000   0.00000   0.00000   0.00000   3.14159
    D4        0.00000  -0.00000   0.00000  -0.00000  -0.00000   0.00000
    D5        0.00000  -0.00000   0.00000  -0.00000  -0.00000   0.00000
    D6        3.14159  -0.00000   0.00000  -0.00000   0.00000   3.14159
    D7        3.14159  -0.00000   0.00000  -0.00000   0.00000   3.14159
    D8        0.00000  -0.00000   0.00000  -0.00000  -0.00000   0.00000
    D9        0.00000  -0.00000   0.00000  -0.00000  -0.00000   0.00000
   D10        3.14159  -0.00000   0.00000  -0.00000   0.00000   3.14159
   D11        3.14159  -0.00000   0.00000  -0.00000   0.00000   3.14159
   D12        0.00000  -0.00000   0.00000  -0.00000  -0.00000   0.00000
   D13       -0.00000   0.00000   0.00000   0.00000   0.00000   0.00000
   D14        3.14159   0.00000   0.00000   0.00000   0.00000   3.14159
   D15        3.14159   0.00000   0.00000   0.00000   0.00000   3.14159
   D16        0.00000  -0.00000   0.00000  -0.00000  -0.00000   0.00000
   D17        0.00000  -0.00000   0.00000  -0.00000  -0.00000   0.00000
   D18        3.14159  -0.00000   0.00000  -0.00000   0.00000   3.14159
   D19        3.14159  -0.00000   0.00000  -0.00000   0.00000   3.14159
   D20       -0.00000   0.00000   0.00000   0.00000   0.00000   0.00000
   D21       -0.00000   0.00000   0.00000   0.00000   0.00000   0.00000
   D22        3.14159   0.00000   0.00000   0.00000   0.00000   3.14159
   D23        3.14159   0.00000   0.00000   0.00000   0.00000   3.14159
   D24        0.00000  -0.00000   0.00000  -0.00000  -0.00000   0.00000
         Item               Value     Threshold  Converged?
 Maximum Force            0.004033     0.000450     NO 
 RMS     Force            0.001084     0.000300     NO 
 Maximum Displacement     0.014355     0.001800     NO 
 RMS     Displacement     0.005139     0.001200     NO 
 Predicted change in Energy=-9.655125D-05
 Lowest energy point so far.  Saving SCF results.
 GradGradGradGradGradGradGradGradGradGradGradGradGradGradGradGradGradGrad

 Leave Link  103 at Wed Jan 29 15:47:29 2025, MaxMem=   104857600 cpu:               0.0 elap:               0.0
 (Enter /sw/cluster/pub/apps//g16/l202.exe)
                          Input orientation:                          
 ---------------------------------------------------------------------
 Center     Atomic      Atomic             Coordinates (Angstroms)
 Number     Number       Type             X           Y           Z
 ---------------------------------------------------------------------
      1          6           0        1.212643    0.694355   -0.000000
      2          6           0        1.212643   -0.694355    0.000000
      3          6           0       -0.000000   -1.360829    0.000000
      4          6           0       -1.212643   -0.694355    0.000000
      5          6           0       -1.212643    0.694355   -0.000000
      6          6           0       -0.000000    1.360829   -0.000000
      7          1           0        2.144674    1.251989   -0.000000
      8          1           0        2.144674   -1.251989    0.000000
      9          1           0       -2.144674   -1.251989    0.000000
     10          1           0       -2.144674    1.251989   -0.000000
     11          9           0       -0.000000   -2.708427   -0.000000
     12          9           0       -0.000000    2.708427    0.000000
 ---------------------------------------------------------------------
                    Distance matrix (angstroms):
                    1          2          3          4          5
     1  C    0.000000
     2  C    1.388710   0.000000
     3  C    2.386270   1.383724   0.000000
     4  C    2.794733   2.425286   1.383724   0.000000
     5  C    2.425286   2.794733   2.386270   1.388710   0.000000
     6  C    1.383724   2.386270   2.721658   2.386270   1.383724
     7  H    1.086111   2.157993   3.380302   3.880700   3.403312
     8  H    2.157993   1.086111   2.147434   3.403312   3.880700
     9  H    3.880700   3.403312   2.147434   1.086111   2.157993
    10  H    3.403312   3.880700   3.380302   2.157993   1.086111
    11  F    3.612400   2.350955   1.347599   2.350955   3.612400
    12  F    2.350955   3.612400   4.069256   3.612400   2.350955
                    6          7          8          9         10
     6  C    0.000000
     7  H    2.147434   0.000000
     8  H    3.380302   2.503978   0.000000
     9  H    3.380302   4.966730   4.289348   0.000000
    10  H    2.147434   4.289348   4.966730   2.503978   0.000000
    11  F    4.069256   4.503834   2.592458   2.592458   4.503834
    12  F    1.347599   2.592458   4.503834   4.503834   2.592458
                   11         12
    11  F    0.000000
    12  F    5.416855   0.000000
 Symmetry turned off by external request.
 Stoichiometry    C6H4F2(1-,2)
 Framework group  D2H[C2"(FC.CF),SG(C4H4)]
 Deg. of freedom     6
 Full point group                 D2H     NOp   8
 Rotational constants (GHZ):           5.6703472           1.4331533           1.1440102
 Leave Link  202 at Wed Jan 29 15:47:29 2025, MaxMem=   104857600 cpu:               0.0 elap:               0.0
 (Enter /sw/cluster/pub/apps//g16/l301.exe)
 Standard basis: 6-311++G(d,p) (5D, 7F)
 Ernie: Thresh=  0.10000D-02 Tol=  0.10000D-05 Strict=F.
   204 basis functions,   324 primitive gaussians,   212 cartesian basis functions
    30 alpha electrons       29 beta electrons
       nuclear repulsion energy       342.1249731686 Hartrees.
 IExCor= 1009 DFT=T Ex+Corr=PBE1PBE ExCW=0 ScaHFX=  0.250000
 ScaDFX=  0.750000  0.750000  1.000000  1.000000 ScalE2=  1.000000  1.000000
 IRadAn=      5 IRanWt=     -1 IRanGd=            0 ICorTp=0 IEmpDi=  4
 NAtoms=   12 NActive=   12 NUniq=   12 SFac= 1.00D+00 NAtFMM=   60 NAOKFM=F Big=F
 Integral buffers will be    131072 words long.
 Raffenetti 2 integral format.
 Two-electron integral symmetry is turned off.
 Leave Link  301 at Wed Jan 29 15:47:29 2025, MaxMem=   104857600 cpu:               0.0 elap:               0.0
 (Enter /sw/cluster/pub/apps//g16/l302.exe)
 NPDir=0 NMtPBC=     1 NCelOv=     1 NCel=       1 NClECP=     1 NCelD=      1
         NCelK=      1 NCelE2=     1 NClLst=     1 CellRange=     0.0.
 One-electron integrals computed using PRISM.
 NBasis=   204 RedAO= T EigKep=  2.20D-06  NBF=   204
 NBsUse=   204 1.00D-06 EigRej= -1.00D+00 NBFU=   204
 Precomputing XC quadrature grid using
 IXCGrd= 4 IRadAn=           5 IRanWt=          -1 IRanGd=           0 AccXCQ= 0.00D+00.
 Generated NRdTot=       0 NPtTot=           0 NUsed=           0 NTot=          32
 NSgBfM=   212   212   212   212   212 MxSgAt=    12 MxSgA2=    12.
 Leave Link  302 at Wed Jan 29 15:47:29 2025, MaxMem=   104857600 cpu:               0.1 elap:               0.1
 (Enter /sw/cluster/pub/apps//g16/l303.exe)
 DipDrv:  MaxL=1.
 Leave Link  303 at Wed Jan 29 15:47:29 2025, MaxMem=   104857600 cpu:               0.0 elap:               0.0
 (Enter /sw/cluster/pub/apps//g16/l401.exe)
 Initial guess from the checkpoint file:  "1-4-DFB-ANI.chk"
 B after Tr=    -0.000000    0.000000    0.000000
         Rot=    1.000000   -0.000000   -0.000000   -0.000000 Ang=   0.00 deg.
 Guess basis will be translated and rotated to current coordinates.
 JPrj=2 DoOrth=T DoCkMO=T.
 Initial guess <Sx>= 0.0000 <Sy>= 0.0000 <Sz>= 0.5000 <S**2>= 0.7500 S= 0.5000
 Leave Link  401 at Wed Jan 29 15:47:29 2025, MaxMem=   104857600 cpu:               0.0 elap:               0.0
 (Enter /sw/cluster/pub/apps//g16/l502.exe)
 Two-electron integral symmetry not used.
 UHF open shell SCF:
 Using DIIS extrapolation, IDIIS=  1040.
 NGot=   104857600 LenX=   104764860 LenY=   104719475
 Requested convergence on RMS density matrix=1.00D-08 within 128 cycles.
 Requested convergence on MAX density matrix=1.00D-06.
 Requested convergence on             energy=1.00D-06.
 No special actions if energy rises.
 Fock matrices will be formed incrementally for  20 cycles.

 Cycle   1  Pass 1  IDiag  1:
 FoFJK:  IHMeth= 1 ICntrl=       0 DoSepK=F KAlg= 0 I1Cent=           0 FoldK=F
 IRaf= 970000000 NMat=       1 IRICut=       1 DoRegI=T DoRafI=F ISym2E= 0 IDoP0=0 IntGTp=1.
 FoFCou: FMM=F IPFlag=           0 FMFlag=      100000 FMFlg1=           0
         NFxFlg=           0 DoJE=F BraDBF=F KetDBF=F FulRan=T
         wScrn=  0.000000 ICntrl=         0 IOpCl=  1 I1Cent=           0 NGrid=           0
         NMat0=    1 NMatS0=      1 NMatT0=    0 NMatD0=    1 NMtDS0=    0 NMtDT0=    0
 Symmetry not used in FoFCou.
 E= -430.354360663590    
 DIIS: error= 4.39D-04 at cycle   1 NSaved=   1.
 NSaved= 1 IEnMin= 1 EnMin= -430.354360663590     IErMin= 1 ErrMin= 4.39D-04
 ErrMax= 4.39D-04  0.00D+00 EMaxC= 1.00D-01 BMatC= 1.75D-04 BMatP= 1.75D-04
 IDIUse=3 WtCom= 9.96D-01 WtEn= 4.39D-03
 Coeff-Com:  0.100D+01
 Coeff-En:   0.100D+01
 Coeff:      0.100D+01
 Gap=     0.270 Goal=   None    Shift=    0.000
 Gap=     0.421 Goal=   None    Shift=    0.000
 RMSDP=3.48D-03 MaxDP=3.44D-01              OVMax= 7.25D-03

 Cycle   2  Pass 1  IDiag  1:
 RMSU=  2.47D-03    CP:  1.01D+00
 E= -430.354409383975     Delta-E=       -0.000048720385 Rises=F Damp=F
 DIIS: error= 1.73D-04 at cycle   2 NSaved=   2.
 NSaved= 2 IEnMin= 2 EnMin= -430.354409383975     IErMin= 2 ErrMin= 1.73D-04
 ErrMax= 1.73D-04  0.00D+00 EMaxC= 1.00D-01 BMatC= 1.28D-05 BMatP= 1.75D-04
 IDIUse=3 WtCom= 9.98D-01 WtEn= 1.73D-03
 Coeff-Com:  0.106D+00 0.894D+00
 Coeff-En:   0.000D+00 0.100D+01
 Coeff:      0.106D+00 0.894D+00
 Gap=     0.020 Goal=   None    Shift=    0.000
 Gap=     0.234 Goal=   None    Shift=    0.000
 RMSDP=1.10D-03 MaxDP=1.06D-01 DE=-4.87D-05 OVMax= 1.33D-03

 Cycle   3  Pass 1  IDiag  1:
 RMSU=  2.87D-04    CP:  1.01D+00  1.30D+00
 E= -430.354409658220     Delta-E=       -0.000000274245 Rises=F Damp=F
 DIIS: error= 2.09D-04 at cycle   3 NSaved=   3.
 NSaved= 3 IEnMin= 3 EnMin= -430.354409658220     IErMin= 2 ErrMin= 1.73D-04
 ErrMax= 2.09D-04  0.00D+00 EMaxC= 1.00D-01 BMatC= 1.30D-05 BMatP= 1.28D-05
 IDIUse=3 WtCom= 9.98D-01 WtEn= 2.09D-03
 Coeff-Com: -0.346D-02 0.503D+00 0.500D+00
 Coeff-En:   0.000D+00 0.464D+00 0.536D+00
 Coeff:     -0.346D-02 0.503D+00 0.500D+00
 Gap=     0.020 Goal=   None    Shift=    0.000
 Gap=     0.234 Goal=   None    Shift=    0.000
 RMSDP=4.21D-04 MaxDP=4.02D-02 DE=-2.74D-07 OVMax= 3.91D-04

 Cycle   4  Pass 1  IDiag  1:
 RMSU=  3.18D-05    CP:  1.02D+00  1.42D+00  1.28D+00
 E= -430.354411627203     Delta-E=       -0.000001968983 Rises=F Damp=F
 DIIS: error= 4.00D-05 at cycle   4 NSaved=   4.
 NSaved= 4 IEnMin= 4 EnMin= -430.354411627203     IErMin= 4 ErrMin= 4.00D-05
 ErrMax= 4.00D-05  0.00D+00 EMaxC= 1.00D-01 BMatC= 4.60D-07 BMatP= 1.28D-05
 IDIUse=1 WtCom= 1.00D+00 WtEn= 0.00D+00
 Coeff-Com: -0.692D-02 0.101D+00 0.211D+00 0.695D+00
 Coeff:     -0.692D-02 0.101D+00 0.211D+00 0.695D+00
 Gap=     0.020 Goal=   None    Shift=    0.000
 Gap=     0.234 Goal=   None    Shift=    0.000
 RMSDP=6.65D-04 MaxDP=6.27D-02 DE=-1.97D-06 OVMax= 3.85D-04

 Cycle   5  Pass 1  IDiag  1:
 RMSU=  6.23D-05    CP:  1.02D+00  1.59D+00  1.88D+00  2.39D+00
 E= -430.354411731199     Delta-E=       -0.000000103996 Rises=F Damp=F
 DIIS: error= 3.84D-06 at cycle   5 NSaved=   5.
 NSaved= 5 IEnMin= 5 EnMin= -430.354411731199     IErMin= 5 ErrMin= 3.84D-06
 ErrMax= 3.84D-06  0.00D+00 EMaxC= 1.00D-01 BMatC= 5.58D-09 BMatP= 4.60D-07
 IDIUse=1 WtCom= 1.00D+00 WtEn= 0.00D+00
 Coeff-Com:  0.173D-04-0.165D-01 0.191D-02 0.830D-01 0.932D+00
 Coeff:      0.173D-04-0.165D-01 0.191D-02 0.830D-01 0.932D+00
 Gap=     0.020 Goal=   None    Shift=    0.000
 Gap=     0.234 Goal=   None    Shift=    0.000
 RMSDP=5.17D-04 MaxDP=4.89D-02 DE=-1.04D-07 OVMax= 2.66D-04

 Cycle   6  Pass 1  IDiag  1:
 RMSU=  2.47D-05    CP:  1.02D+00  1.72D+00  2.34D+00  3.00D+00  1.73D+00
 E= -430.354411741079     Delta-E=       -0.000000009880 Rises=F Damp=F
 DIIS: error= 2.02D-06 at cycle   6 NSaved=   6.
 NSaved= 6 IEnMin= 6 EnMin= -430.354411741079     IErMin= 6 ErrMin= 2.02D-06
 ErrMax= 2.02D-06  0.00D+00 EMaxC= 1.00D-01 BMatC= 2.04D-09 BMatP= 5.58D-09
 IDIUse=1 WtCom= 1.00D+00 WtEn= 0.00D+00
 Coeff-Com:  0.484D-03-0.154D-01-0.165D-01-0.942D-02 0.398D+00 0.643D+00
 Coeff:      0.484D-03-0.154D-01-0.165D-01-0.942D-02 0.398D+00 0.643D+00
 Gap=     0.020 Goal=   None    Shift=    0.000
 Gap=     0.234 Goal=   None    Shift=    0.000
 RMSDP=2.13D-04 MaxDP=2.01D-02 DE=-9.88D-09 OVMax= 9.93D-05

 Cycle   7  Pass 1  IDiag  1:
 RMSU=  1.66D-06    CP:  1.02D+00  1.77D+00  2.53D+00  3.00D+00  2.06D+00
                    CP:  1.81D+00
 E= -430.354411743329     Delta-E=       -0.000000002250 Rises=F Damp=F
 DIIS: error= 8.25D-07 at cycle   7 NSaved=   7.
 NSaved= 7 IEnMin= 7 EnMin= -430.354411743329     IErMin= 7 ErrMin= 8.25D-07
 ErrMax= 8.25D-07  0.00D+00 EMaxC= 1.00D-01 BMatC= 4.28D-10 BMatP= 2.04D-09
 IDIUse=1 WtCom= 1.00D+00 WtEn= 0.00D+00
 Coeff-Com:  0.420D-03-0.397D-02-0.106D-01-0.270D-01-0.119D+00 0.254D+00
 Coeff-Com:  0.906D+00
 Coeff:      0.420D-03-0.397D-02-0.106D-01-0.270D-01-0.119D+00 0.254D+00
 Coeff:      0.906D+00
 Gap=     0.020 Goal=   None    Shift=    0.000
 Gap=     0.234 Goal=   None    Shift=    0.000
 RMSDP=2.31D-04 MaxDP=2.18D-02 DE=-2.25D-09 OVMax= 1.05D-04

 Cycle   8  Pass 1  IDiag  1:
 RMSU=  6.23D-07    CP:  1.02D+00  1.83D+00  2.74D+00  3.00D+00  2.43D+00
                    CP:  2.73D+00  1.87D+00
 E= -430.354411744377     Delta-E=       -0.000000001048 Rises=F Damp=F
 DIIS: error= 1.93D-07 at cycle   8 NSaved=   8.
 NSaved= 8 IEnMin= 8 EnMin= -430.354411744377     IErMin= 8 ErrMin= 1.93D-07
 ErrMax= 1.93D-07  0.00D+00 EMaxC= 1.00D-01 BMatC= 2.58D-11 BMatP= 4.28D-10
 IDIUse=1 WtCom= 1.00D+00 WtEn= 0.00D+00
 Coeff-Com: -0.646D-04 0.165D-02 0.330D-02 0.608D-02-0.383D-01-0.125D+00
 Coeff-Com: -0.109D+00 0.126D+01
 Coeff:     -0.646D-04 0.165D-02 0.330D-02 0.608D-02-0.383D-01-0.125D+00
 Coeff:     -0.109D+00 0.126D+01
 Gap=     0.020 Goal=   None    Shift=    0.000
 Gap=     0.234 Goal=   None    Shift=    0.000
 RMSDP=1.15D-04 MaxDP=1.07D-02 DE=-1.05D-09 OVMax= 4.97D-05

 Cycle   9  Pass 1  IDiag  1:
 RMSU=  5.96D-06    CP:  1.02D+00  1.86D+00  2.84D+00  3.00D+00  2.63D+00
                    CP:  3.00D+00  2.10D+00  2.78D+00
 E= -430.354411744516     Delta-E=       -0.000000000139 Rises=F Damp=F
 DIIS: error= 6.75D-08 at cycle   9 NSaved=   9.
 NSaved= 9 IEnMin= 9 EnMin= -430.354411744516     IErMin= 9 ErrMin= 6.75D-08
 ErrMax= 6.75D-08  0.00D+00 EMaxC= 1.00D-01 BMatC= 1.63D-12 BMatP= 2.58D-11
 IDIUse=1 WtCom= 1.00D+00 WtEn= 0.00D+00
 Coeff-Com: -0.309D-04 0.463D-03 0.108D-02 0.242D-02-0.274D-02-0.355D-01
 Coeff-Com: -0.553D-01 0.226D+00 0.864D+00
 Coeff:     -0.309D-04 0.463D-03 0.108D-02 0.242D-02-0.274D-02-0.355D-01
 Coeff:     -0.553D-01 0.226D+00 0.864D+00
 Gap=     0.020 Goal=   None    Shift=    0.000
 Gap=     0.234 Goal=   None    Shift=    0.000
 RMSDP=1.26D-05 MaxDP=1.16D-03 DE=-1.39D-10 OVMax= 5.45D-06

 Cycle  10  Pass 1  IDiag  1:
 RMSU=  2.28D-07    CP:  1.02D+00  1.86D+00  2.85D+00  3.00D+00  2.65D+00
                    CP:  3.00D+00  2.08D+00  3.00D+00  1.28D+00
 E= -430.354411744517     Delta-E=       -0.000000000001 Rises=F Damp=F
 DIIS: error= 3.85D-08 at cycle  10 NSaved=  10.
 NSaved=10 IEnMin=10 EnMin= -430.354411744517     IErMin=10 ErrMin= 3.85D-08
 ErrMax= 3.85D-08  0.00D+00 EMaxC= 1.00D-01 BMatC= 5.20D-13 BMatP= 1.63D-12
 IDIUse=1 WtCom= 1.00D+00 WtEn= 0.00D+00
 Coeff-Com: -0.454D-06-0.121D-03-0.115D-03 0.163D-03 0.665D-02 0.482D-02
 Coeff-Com: -0.100D-01-0.113D+00 0.364D+00 0.748D+00
 Coeff:     -0.454D-06-0.121D-03-0.115D-03 0.163D-03 0.665D-02 0.482D-02
 Coeff:     -0.100D-01-0.113D+00 0.364D+00 0.748D+00
 Gap=     0.020 Goal=   None    Shift=    0.000
 Gap=     0.234 Goal=   None    Shift=    0.000
 RMSDP=3.88D-06 MaxDP=3.52D-04 DE=-1.36D-12 OVMax= 1.72D-06

 Cycle  11  Pass 1  IDiag  1:
 RMSU=  6.06D-08    CP:  1.02D+00  1.86D+00  2.85D+00  3.00D+00  2.66D+00
                    CP:  3.00D+00  2.06D+00  3.00D+00  1.37D+00  1.77D+00
 E= -430.354411744516     Delta-E=        0.000000000001 Rises=F Damp=F
 DIIS: error= 3.99D-09 at cycle  11 NSaved=  11.
 NSaved=11 IEnMin=10 EnMin= -430.354411744517     IErMin=11 ErrMin= 3.99D-09
 ErrMax= 3.99D-09  0.00D+00 EMaxC= 1.00D-01 BMatC= 9.75D-15 BMatP= 5.20D-13
 IDIUse=1 WtCom= 1.00D+00 WtEn= 0.00D+00
 Coeff-Com:  0.182D-05-0.440D-04-0.797D-04-0.114D-03 0.911D-03 0.252D-02
 Coeff-Com:  0.241D-02-0.240D-01-0.970D-02 0.798D-01 0.948D+00
 Coeff:      0.182D-05-0.440D-04-0.797D-04-0.114D-03 0.911D-03 0.252D-02
 Coeff:      0.241D-02-0.240D-01-0.970D-02 0.798D-01 0.948D+00
 Gap=     0.020 Goal=   None    Shift=    0.000
 Gap=     0.234 Goal=   None    Shift=    0.000
 RMSDP=2.29D-07 MaxDP=1.50D-05 DE= 1.25D-12 OVMax= 2.48D-07

 Cycle  12  Pass 1  IDiag  1:
 RMSU=  2.15D-08    CP:  1.02D+00  1.86D+00  2.85D+00  3.00D+00  2.66D+00
                    CP:  3.00D+00  2.06D+00  3.00D+00  1.38D+00  2.03D+00
                    CP:  1.98D-01
 E= -430.354411744519     Delta-E=       -0.000000000003 Rises=F Damp=F
 DIIS: error= 8.17D-09 at cycle  12 NSaved=  12.
 NSaved=12 IEnMin=12 EnMin= -430.354411744519     IErMin=11 ErrMin= 3.99D-09
 ErrMax= 8.17D-09  0.00D+00 EMaxC= 1.00D-01 BMatC= 8.56D-15 BMatP= 9.75D-15
 IDIUse=1 WtCom= 1.00D+00 WtEn= 0.00D+00
 Coeff-Com:  0.108D-05-0.177D-04-0.387D-04-0.773D-04 0.997D-04 0.110D-02
 Coeff-Com:  0.204D-02-0.662D-02-0.301D-01-0.257D-02 0.575D+00 0.461D+00
[...]
 Berny optimization.
 Red2BG is reusing G-inverse.
 Internal  Forces:  Max     0.000135329 RMS     0.000055707
 Search for a local minimum.
 Step number   1 out of a maximum of    2
 All quantities printed in internal units (Hartrees-Bohrs-Radians)
 Second derivative matrix not updated -- analytic derivatives used.
 ITU=  0
     Eigenvalues ---    0.01330   0.01766   0.01797   0.02092   0.02300
     Eigenvalues ---    0.03032   0.03255   0.03429   0.04524   0.10123
     Eigenvalues ---    0.10388   0.10475   0.11648   0.15922   0.17391
     Eigenvalues ---    0.18761   0.20509   0.22509   0.31801   0.33898
     Eigenvalues ---    0.35046   0.35466   0.35858   0.35950   0.41088
     Eigenvalues ---    0.42641   0.46714   0.49215   0.49417   0.53851
 Angle between quadratic step and forces=  22.79 degrees.
 Linear search not attempted -- first point.
 Iteration  1 RMS(Cart)=  0.00012910 RMS(Int)=  0.00000002
 Iteration  2 RMS(Cart)=  0.00000004 RMS(Int)=  0.00000000
 ITry= 1 IFail=0 DXMaxC= 4.72D-04 DCOld= 1.00D+10 DXMaxT= 3.00D-01 DXLimC= 3.00D+00 Rises=F
 Variable       Old X    -DE/DX   Delta X   Delta X   Delta X     New X
                                 (Linear)    (Quad)   (Total)
    R1        2.62589   0.00010   0.00000   0.00030   0.00030   2.62620
    R2        2.61367  -0.00010   0.00000  -0.00024  -0.00024   2.61342
    R3        2.05279  -0.00014   0.00000  -0.00040  -0.00040   2.05239
    R4        2.61367  -0.00010   0.00000  -0.00024  -0.00024   2.61342
    R5        2.05279  -0.00014   0.00000  -0.00040  -0.00040   2.05239
    R6        2.61367  -0.00010   0.00000  -0.00024  -0.00024   2.61342
    R7        2.55074   0.00007   0.00000   0.00032   0.00032   2.55106
    R8        2.62589   0.00010   0.00000   0.00030   0.00030   2.62620
    R9        2.05279  -0.00014   0.00000  -0.00040  -0.00040   2.05239
   R10        2.61367  -0.00010   0.00000  -0.00024  -0.00024   2.61342
   R11        2.05279  -0.00014   0.00000  -0.00040  -0.00040   2.05239
   R12        2.55074   0.00007   0.00000   0.00032   0.00032   2.55106
    A1        2.07318  -0.00004   0.00000  -0.00022  -0.00022   2.07296
    A2        2.10690  -0.00000   0.00000  -0.00008  -0.00008   2.10682
    A3        2.10310   0.00004   0.00000   0.00030   0.00030   2.10340
    A4        2.07318  -0.00004   0.00000  -0.00022  -0.00022   2.07296
    A5        2.10690  -0.00000   0.00000  -0.00008  -0.00008   2.10682
    A6        2.10310   0.00004   0.00000   0.00030   0.00030   2.10340
    A7        2.13682   0.00007   0.00000   0.00044   0.00044   2.13726
    A8        2.07318  -0.00004   0.00000  -0.00022  -0.00022   2.07296
    A9        2.07318  -0.00004   0.00000  -0.00022  -0.00022   2.07296
   A10        2.07318  -0.00004   0.00000  -0.00022  -0.00022   2.07296
   A11        2.10310   0.00004   0.00000   0.00030   0.00030   2.10340
   A12        2.10690  -0.00000   0.00000  -0.00008  -0.00008   2.10682
   A13        2.07318  -0.00004   0.00000  -0.00022  -0.00022   2.07296
   A14        2.10690  -0.00000   0.00000  -0.00008  -0.00008   2.10682
   A15        2.10310   0.00004   0.00000   0.00030   0.00030   2.10340
   A16        2.13682   0.00007   0.00000   0.00044   0.00044   2.13726
   A17        2.07318  -0.00004   0.00000  -0.00022  -0.00022   2.07296
   A18        2.07318  -0.00004   0.00000  -0.00022  -0.00022   2.07296
    D1       -0.00000   0.00000   0.00000   0.00000   0.00000   0.00000
    D2        3.14159   0.00000   0.00000   0.00000   0.00000   3.14159
    D3        3.14159   0.00000   0.00000   0.00000   0.00000   3.14159
    D4        0.00000  -0.00000   0.00000  -0.00000  -0.00000   0.00000
    D5        0.00000  -0.00000   0.00000  -0.00000  -0.00000   0.00000
    D6       -3.14159  -0.00000   0.00000  -0.00000  -0.00000  -3.14159
    D7        3.14159  -0.00000   0.00000  -0.00000   0.00000   3.14159
    D8        0.00000  -0.00000   0.00000  -0.00000  -0.00000   0.00000
    D9        0.00000  -0.00000   0.00000  -0.00000  -0.00000   0.00000
   D10       -3.14159  -0.00000   0.00000  -0.00000  -0.00000  -3.14159
   D11        3.14159  -0.00000   0.00000  -0.00000   0.00000   3.14159
   D12        0.00000  -0.00000   0.00000  -0.00000  -0.00000   0.00000
   D13       -0.00000   0.00000   0.00000   0.00000   0.00000   0.00000
   D14        3.14159   0.00000   0.00000   0.00000   0.00000   3.14159
   D15        3.14159   0.00000   0.00000   0.00000   0.00000   3.14159
   D16       -0.00000   0.00000   0.00000   0.00000   0.00000   0.00000
   D17        0.00000  -0.00000   0.00000  -0.00000  -0.00000   0.00000
   D18        3.14159  -0.00000   0.00000  -0.00000   0.00000   3.14159
   D19        3.14159  -0.00000   0.00000  -0.00000   0.00000   3.14159
   D20       -0.00000   0.00000   0.00000   0.00000   0.00000   0.00000
   D21       -0.00000   0.00000   0.00000   0.00000   0.00000   0.00000
   D22        3.14159   0.00000   0.00000   0.00000   0.00000   3.14159
   D23        3.14159   0.00000   0.00000   0.00000   0.00000   3.14159
   D24       -0.00000   0.00000   0.00000   0.00000   0.00000   0.00000
         Item               Value     Threshold  Converged?
 Maximum Force            0.000135     0.000450     YES
 RMS     Force            0.000056     0.000300     YES
 Maximum Displacement     0.000472     0.001800     YES
 RMS     Displacement     0.000129     0.001200     YES
 Predicted change in Energy=-2.943376D-07
 Optimization completed.
    -- Stationary point found.
                           ----------------------------
                           !   Optimized Parameters   !
                           ! (Angstroms and Degrees)  !
 --------------------------                            --------------------------
 ! Name  Definition              Value          Derivative Info.                !
 --------------------------------------------------------------------------------
 ! R1    R(1,2)                  1.3896         -DE/DX =    0.0001              !
 ! R2    R(1,6)                  1.3831         -DE/DX =   -0.0001              !
 ! R3    R(1,7)                  1.0863         -DE/DX =   -0.0001              !
 ! R4    R(2,3)                  1.3831         -DE/DX =   -0.0001              !
 ! R5    R(2,8)                  1.0863         -DE/DX =   -0.0001              !
 ! R6    R(3,4)                  1.3831         -DE/DX =   -0.0001              !
 ! R7    R(3,11)                 1.3498         -DE/DX =    0.0001              !
 ! R8    R(4,5)                  1.3896         -DE/DX =    0.0001              !
 ! R9    R(4,9)                  1.0863         -DE/DX =   -0.0001              !
 ! R10   R(5,6)                  1.3831         -DE/DX =   -0.0001              !
 ! R11   R(5,10)                 1.0863         -DE/DX =   -0.0001              !
 ! R12   R(6,12)                 1.3498         -DE/DX =    0.0001              !
 ! A1    A(2,1,6)              118.7846         -DE/DX =    0.0                 !
 ! A2    A(2,1,7)              120.7167         -DE/DX =    0.0                 !
 ! A3    A(6,1,7)              120.4987         -DE/DX =    0.0                 !
 ! A4    A(1,2,3)              118.7846         -DE/DX =    0.0                 !
 ! A5    A(1,2,8)              120.7167         -DE/DX =    0.0                 !
 ! A6    A(3,2,8)              120.4987         -DE/DX =    0.0                 !
 ! A7    A(2,3,4)              122.4308         -DE/DX =    0.0001              !
 ! A8    A(2,3,11)             118.7846         -DE/DX =    0.0                 !
 ! A9    A(4,3,11)             118.7846         -DE/DX =    0.0                 !
 ! A10   A(3,4,5)              118.7846         -DE/DX =    0.0                 !
 ! A11   A(3,4,9)              120.4987         -DE/DX =    0.0                 !
 ! A12   A(5,4,9)              120.7167         -DE/DX =    0.0                 !
 ! A13   A(4,5,6)              118.7846         -DE/DX =    0.0                 !
 ! A14   A(4,5,10)             120.7167         -DE/DX =    0.0                 !
 ! A15   A(6,5,10)             120.4987         -DE/DX =    0.0                 !
 ! A16   A(1,6,5)              122.4308         -DE/DX =    0.0001              !
 ! A17   A(1,6,12)             118.7846         -DE/DX =    0.0                 !
 ! A18   A(5,6,12)             118.7846         -DE/DX =    0.0                 !
 ! D1    D(6,1,2,3)              0.0            -DE/DX =    0.0                 !
 ! D2    D(6,1,2,8)            180.0            -DE/DX =    0.0                 !
 ! D3    D(7,1,2,3)            180.0            -DE/DX =    0.0                 !
 ! D4    D(7,1,2,8)              0.0            -DE/DX =    0.0                 !
 ! D5    D(2,1,6,5)              0.0            -DE/DX =    0.0                 !
 ! D6    D(2,1,6,12)          -180.0            -DE/DX =    0.0                 !
 ! D7    D(7,1,6,5)            180.0            -DE/DX =    0.0                 !
 ! D8    D(7,1,6,12)             0.0            -DE/DX =    0.0                 !
 ! D9    D(1,2,3,4)              0.0            -DE/DX =    0.0                 !
 ! D10   D(1,2,3,11)          -180.0            -DE/DX =    0.0                 !
 ! D11   D(8,2,3,4)            180.0            -DE/DX =    0.0                 !
 ! D12   D(8,2,3,11)             0.0            -DE/DX =    0.0                 !
 ! D13   D(2,3,4,5)              0.0            -DE/DX =    0.0                 !
 ! D14   D(2,3,4,9)            180.0            -DE/DX =    0.0                 !
 ! D15   D(11,3,4,5)           180.0            -DE/DX =    0.0                 !
 ! D16   D(11,3,4,9)             0.0            -DE/DX =    0.0                 !
 ! D17   D(3,4,5,6)              0.0            -DE/DX =    0.0                 !
 ! D18   D(3,4,5,10)           180.0            -DE/DX =    0.0                 !
 ! D19   D(9,4,5,6)            180.0            -DE/DX =    0.0                 !
 ! D20   D(9,4,5,10)             0.0            -DE/DX =    0.0                 !
 ! D21   D(4,5,6,1)              0.0            -DE/DX =    0.0                 !
 ! D22   D(4,5,6,12)           180.0            -DE/DX =    0.0                 !
 ! D23   D(10,5,6,1)           180.0            -DE/DX =    0.0                 !
 ! D24   D(10,5,6,12)            0.0            -DE/DX =    0.0                 !
 --------------------------------------------------------------------------------
 GradGradGradGradGradGradGradGradGradGradGradGradGradGradGradGradGradGrad

 Leave Link  103 at Wed Jan 29 15:56:19 2025, MaxMem=   104857600 cpu:               0.0 elap:               0.0
 (Enter /sw/cluster/pub/apps//g16/l9999.exe)
 Dipole is zero, so no output in dipole orientation.

 ----------------------------------------------------------------------

 Electric dipole moment (input orientation):
 (Debye = 10**-18 statcoulomb cm , SI units = C m)
                  (au)            (Debye)         (10**-30 SI)
   Tot        0.000000D+00      0.000000D+00      0.000000D+00
   x          0.000000D+00      0.000000D+00      0.000000D+00
   y          0.000000D+00      0.000000D+00      0.000000D+00
   z          0.000000D+00      0.000000D+00      0.000000D+00

 Dipole polarizability, Alpha (input orientation).
 (esu units = cm**3 , SI units = C**2 m**2 J**-1)
 Alpha(0;0):
               (au)            (10**-24 esu)      (10**-40 SI)
   iso        0.250395D+04      0.371048D+03      0.412846D+03
   aniso      0.364013D+04      0.539412D+03      0.600177D+03
   xx         0.433002D+04      0.641643D+03      0.713924D+03
   yx        -0.100573D-04     -0.149034D-05     -0.165823D-05
   yy         0.297510D+04      0.440865D+03      0.490528D+03
   zx         0.000000D+00      0.000000D+00      0.000000D+00
   zy        -0.479545D-04     -0.710612D-05     -0.790662D-05
   zz         0.206736D+03      0.306351D+02      0.340861D+02

 ----------------------------------------------------------------------
 1\1\GINC-N02\Freq\UPBE1PBE\6-311++G(d,p)\C6H4F2(1-,2)\UNKNOWN\29-Jan-2
 025\0\\#P Geom=AllCheck Guess=TCheck SCRF=Check GenChk UPBE1PBE/6-311+
 +G(d,p) Freq\\1 4-DFB SP\\-1,2\C,1.2121924228,0.6947816379,0.000000006
 9\C,1.2121924228,-0.6947816379,-0.0000000069\C,0.,-1.3607652846,-0.000
 000002\C,-1.2121924228,-0.694781638,-0.0000000076\C,-1.2121924228,0.69
 47816379,0.0000000076\C,0.,1.3607652846,0.000000002\H,2.1460782743,1.2
 496508024,0.0000000071\H,2.1460782744,-1.2496508024,-0.0000000071\H,-2
 .1460782744,-1.2496508025,-0.0000000051\H,-2.1460782744,1.2496508025,0
 .0000000051\F,0.,-2.7105590538,0.0000000104\F,0.,2.7105590539,-0.00000
 00104\\Version=ES64L-G16RevA.03\HF=-430.3544254\S2=0.750048\S2-1=0.\S2
 A=0.75\RMSD=2.019e-09\RMSF=1.295e-04\ZeroPoint=0.0838292\Thermal=0.089
 7329\Dipole=0.,0.,0.\DipoleDeriv=0.4693206,-2.5486272,0.,0.753812,-0.9
 742701,0.,0.,0.0000079,0.5503012,0.4693204,2.5486276,0.,-0.7538121,-0.
 9742706,0.,0.,-0.0000085,0.5503013,-0.7921072,0.,0.,0.,-1.5132402,0.,0
 .,-0.0000049,-0.1686444,0.4693205,-2.548628,0.0000001,0.7538121,-0.974
 2706,0.,0.,0.0000115,0.5503012,0.4693206,2.5486276,-0.0000001,-0.75381
 2,-0.9742703,0.,0.,-0.0000062,0.5503013,-0.7921075,0.,0.,0.,-1.5132404
 ,0.,0.,-0.0000044,-0.1686444,-0.7999434,-0.2388983,0.,0.3211198,-0.164
 9032,0.,0.,0.0000055,-0.7157089,-0.7999434,0.2388977,0.,-0.3211197,-0.
 1649032,0.,0.0000001,0.0000009,-0.7157089,-0.7999434,-0.2388977,0.,0.3
 211197,-0.1649032,0.,0.,0.0000017,-0.7157089,-0.7999434,0.2388983,0.,-
 0.3211197,-0.164903,0.,0.,-0.0000025,-0.7157089,0.9533531,-0.0000001,0
 .,0.,3.2915873,0.,0.,-0.0000004,-0.0005403,0.953353,0.,0.,0.,3.2915873
 ,0.,0.,-0.0000006,-0.0005403\Polar=4330.0219492,-0.0000101,2975.103534
 5,-0.0000003,-0.000048,206.7357042\Quadrupole=-16.4748227,1.9884292,14
 .4863935,0.,0.,0.\PG=C02H [SGH(C2F2),X(C4H4)]\NImag=0\\0.72798853,0.02
 306658,0.71459979,0.00000002,0.00000001,0.13158423,-0.12179076,0.03220
 640,-0.00000002,0.72798853,-0.03220640,-0.36087011,0.,-0.02306658,0.71
 459978,-0.00000002,-0.00000001,-0.05757498,0.00000002,0.,0.13158421,0.
 04321966,-0.08165979,0.,-0.31011824,-0.04566121,0.,0.72568360,-0.02595
 946,-0.02595944,0.,-0.12020666,-0.15681105,0.,0.,0.65285684,0.,0.,-0.0
 0226223,0.,0.,-0.06338217,0.,0.,0.14443556,-0.02404731,0.03040792,0.00
 000002,-0.04885258,-0.02621120,-0.00000002,-0.31011824,0.12020666,-0.0
 0000001,0.72798853,0.03040791,-0.04983152,0.,0.02621120,0.06122824,0.,
 0.04566121,-0.15681105,0.,0.02306658,0.71459978,0.00000003,0.00000002,
 0.01196749,-0.00000003,0.00000001,-0.00096966,0.,0.,-0.06338213,0.0000
 0002,0.00000001,0.13158414,-0.04885259,0.02621120,0.,-0.02404731,-0.03
 040791,0.00000001,0.04321966,0.02595946,0.00000001,-0.12179075,0.03220
 640,-0.00000002,0.72798853,-0.02621120,0.06122824,0.,-0.03040792,-0.04
 983152,0.,0.08165979,-0.02595944,0.,-0.03220640,-0.36087011,0.,-0.0230
 6658,0.71459979,-0.00000002,-0.00000001,-0.00096967,0.00000002,0.,0.01
 196748,0.,0.,-0.00226227,0.,0.,-0.05757489,0.,0.,0.13158413,-0.3101182
 4,0.04566122,0.,0.04321966,0.08165979,0.,-0.09034874,0.,0.,0.04321966,
 -0.08165979,0.,-0.31011824,-0.04566121,0.,0.72568360,0.12020666,-0.156
 81105,0.,0.02595946,-0.02595944,0.,0.,-0.00804837,0.,-0.02595946,-0.02
 595944,0.,-0.12020666,-0.15681105,0.,0.,0.65285684,0.,0.,-0.06338218,0
 .,0.,-0.00226222,0.,0.,-0.00264215,-0.00000001,0.,-0.00226228,0.000000
 01,0.,-0.06338212,0.,0.,0.14443556,-0.26625612,-0.12137256,0.,0.007894
 52,0.00045048,0.,0.00065380,-0.00058720,0.,-0.00032251,0.00118852,0.,-
 0.00496426,0.00313639,0.,-0.01687524,-0.01456482,0.,0.27629872,-0.1220
 9156,-0.12784748,0.,-0.02639171,-0.01110105,0.,0.00139331,-0.00409990,
 0.,0.00043961,-0.00089704,0.,0.00258260,-0.00099979,0.,0.01364990,0.01
 035990,0.,0.13251246,0.13206277,0.,0.,-0.03358252,-0.00000001,0.,-0.00
 018055,0.,0.,0.00886744,0.00000001,0.,-0.00050698,-0.00000001,0.,0.002
 41835,0.,0.,0.00656922,0.,0.,0.02445410,0.00789452,-0.00045048,0.,-0.2
 6625612,0.12137256,0.,-0.01687524,0.01456482,0.,-0.00496426,-0.0031363
 9,0.,-0.00032251,-0.00118852,0.,0.00065380,0.00058720,0.,-0.00140630,-
 0.00043969,0.,0.27629872,0.02639171,-0.01110105,0.,0.12209156,-0.12784
 748,0.,-0.01364990,0.01035990,0.,-0.00258260,-0.00099979,0.,-0.0004396
 2,-0.00089704,0.,-0.00139331,-0.00409990,0.,0.00043969,0.00157906,0.,-
 0.13251246,0.13206277,0.,0.,-0.00018055,0.,0.,-0.03358252,0.,0.,0.0065
 6922,0.,0.,0.00241834,0.,0.,-0.00050698,0.,0.,0.00886744,0.,0.,-0.0045
 8765,0.,0.,0.02445410,-0.00032251,0.00118852,0.,-0.00496426,0.00313639
 ,0.,-0.01687524,-0.01456482,0.,-0.26625612,-0.12137256,0.,0.00789452,0
 .00045048,0.,0.00065380,-0.00058720,0.,0.00067540,0.00004834,0.,0.0010
 0997,-0.00122653,0.,0.27629872,0.00043962,-0.00089704,0.,0.00258260,-0
 .00099979,0.,0.01364990,0.01035990,0.,-0.12209156,-0.12784748,0.,-0.02
 639171,-0.01110105,0.,0.00139331,-0.00409990,0.,0.00004834,0.00004511,
 0.,0.00122653,0.00028714,0.,0.13251246,0.13206277,0.,0.,-0.00050696,0.
 ,0.,0.00241834,0.,0.,0.00656923,0.,0.,-0.03358253,0.,0.,-0.00018054,0.
 ,0.,0.00886742,0.,0.,0.00001140,0.,0.,-0.00038266,0.,0.,0.02445410,-0.
 00496426,-0.00313639,0.,-0.00032251,-0.00118852,0.,0.00065380,0.000587
 20,0.,0.00789452,-0.00045048,0.,-0.26625612,0.12137256,0.,-0.01687524,
 0.01456482,0.,0.00100997,0.00122653,0.,0.00067540,-0.00004834,0.,-0.00
 140630,-0.00043969,0.,0.27629872,-0.00258260,-0.00099979,0.,-0.0004396
 2,-0.00089704,0.,-0.00139331,-0.00409990,0.,0.02639171,-0.01110105,0.,
 0.12209156,-0.12784748,0.,-0.01364990,0.01035990,0.,-0.00122653,0.0002
 8714,0.,-0.00004834,0.00004511,0.,0.00043969,0.00157906,0.,-0.13251246
 ,0.13206277,0.,0.,0.00241833,0.,0.,-0.00050696,0.,0.,0.00886742,0.,0.,
 -0.00018054,0.,0.,-0.03358253,0.,0.,0.00656923,0.,0.,-0.00038266,0.,0.
 ,0.00001140,0.,0.,-0.00458765,0.,0.,0.02445410,-0.00854122,0.00304766,
 0.,0.00579030,-0.04482973,0.,-0.07403420,0.,0.,0.00579030,0.04482973,0
 .,-0.00854122,-0.00304766,0.,0.00493940,0.,0.,0.00050377,-0.00158618,0
 .,0.00278825,0.00134361,0.,0.00278826,-0.00134361,0.,0.00050377,0.0015
 8618,0.,0.06795753,-0.00072105,0.00141033,-0.00000001,-0.00925979,-0.0
 4292088,0.00000001,0.,-0.29886390,0.,0.00925979,-0.04292088,-0.0000000
 2,0.00072105,0.00141033,0.,0.,0.00707642,0.,0.00200909,-0.00126113,0.,
 0.00203386,0.00187241,0.,-0.00203386,0.00187241,0.,-0.00200909,-0.0012
 6113,0.,0.,0.38745361,0.,0.,0.00650337,0.,0.,0.00598566,0.,0.,-0.04089
 280,0.,0.,0.00598566,0.,0.,0.00650337,0.,0.,-0.00048513,0.,0.,0.000579
 89,0.,0.,-0.00366003,0.,0.,-0.00366003,0.,0.,0.00057989,0.,0.,0.023494
 95,0.00579030,0.04482973,0.,-0.00854122,-0.00304766,0.,0.00493940,0.,0
 .,-0.00854122,0.00304766,0.,0.00579030,-0.04482973,0.,-0.07403420,0.,0
 .,0.00278826,-0.00134361,0.,0.00050377,0.00158618,0.,0.00050377,-0.001
 58618,0.,0.00278826,0.00134361,0.,0.00005507,0.,0.,0.06795753,0.009259
 79,-0.04292088,-0.00000001,0.00072105,0.00141033,0.00000002,0.,0.00707
 641,0.,-0.00072105,0.00141033,-0.00000002,-0.00925979,-0.04292088,0.00
 000001,0.,-0.29886390,0.,-0.00203386,0.00187241,-0.00000001,-0.0020090
 9,-0.00126113,0.,0.00200909,-0.00126113,0.,0.00203386,0.00187241,0.,0.
 ,-0.01386758,0.,0.,0.38745361,0.,0.,0.00598566,0.,0.,0.00650337,0.,0.,
 -0.00048513,0.,0.,0.00650337,0.,0.,0.00598566,0.,0.,-0.04089280,0.,0.,
 -0.00366003,0.,0.,0.00057989,0.,0.,0.00057989,0.,0.,-0.00366003,0.,0.,
 -0.00093479,0.,0.,0.02349495\\-0.00005351,-0.00029299,0.,-0.00005351,0
 .00029299,0.,0.,-0.00028620,0.,0.00005351,0.00029299,0.,0.00005351,-0.
 00029299,0.,0.,0.00028620,0.,0.00010639,0.00008587,0.,0.00010639,-0.00
 008587,0.,-0.00010639,-0.00008587,0.,-0.00010639,0.00008587,0.,0.,0.00
 007294,0.,0.,-0.00007294,0.\\\@


 EVERYTHING'S GOT A MORAL, IF ONLY YOU CAN FIND IT.

                                    -- LEWIS CARROL, ALICE IN WONDERLAND
 Job cpu time:       0 days  0 hours  6 minutes 36.8 seconds.
 Elapsed time:       0 days  0 hours  6 minutes 37.9 seconds.
 File lengths (MBytes):  RWF=    114 Int=      0 D2E=      0 Chk=      6 Scr=      1
 Normal termination of Gaussian 16 at Wed Jan 29 15:56:19 2025.
