 Entering Gaussian System, Link 0=g16
 Initial command:
 /sw/cluster/pub/apps//g16/l1.exe "/data/natrosa/27756/Gau-300744.inp" -scrdir="/data/natrosa/27756/"
 Entering Link 1 = /sw/cluster/pub/apps//g16/l1.exe PID=    300745.
  
 Copyright (c) 1988,1990,1992,1993,1995,1998,2003,2009,2016,
            Gaussian, Inc.  All Rights Reserved.
  
 This is part of the Gaussian(R) 16 program.  It is based on
 the Gaussian(R) 09 system (copyright 2009, Gaussian, Inc.),
 the Gaussian(R) 03 system (copyright 2003, Gaussian, Inc.),
 the Gaussian(R) 98 system (copyright 1998, Gaussian, Inc.),
 the Gaussian(R) 94 system (copyright 1995, Gaussian, Inc.),
 the Gaussian 92(TM) system (copyright 1992, Gaussian, Inc.),
 the Gaussian 90(TM) system (copyright 1990, Gaussian, Inc.),
 the Gaussian 88(TM) system (copyright 1988, Gaussian, Inc.),
 the Gaussian 86(TM) system (copyright 1986, Carnegie Mellon
 University), and the Gaussian 82(TM) system (copyright 1983,
 Carnegie Mellon University). Gaussian is a federally registered
 trademark of Gaussian, Inc.
  
 This software contains proprietary and confidential information,
 including trade secrets, belonging to Gaussian, Inc.
  
 This software is provided under written license and may be
 used, copied, transmitted, or stored only in accord with that
 written license.
  
 The following legend is applicable only to US Government
 contracts under FAR:
  
                    RESTRICTED RIGHTS LEGEND
  
 Use, reproduction and disclosure by the US Government is
 subject to restrictions as set forth in subparagraphs (a)
 and (c) of the Commercial Computer Software - Restricted
 Rights clause in FAR 52.227-19.
  
 Gaussian, Inc.
 340 Quinnipiac St., Bldg. 40, Wallingford CT 06492
  
  
 ---------------------------------------------------------------
 Warning -- This program may not be used in any manner that
 competes with the business of Gaussian, Inc. or will provide
 assistance to any competitor of Gaussian, Inc.  The licensee
 of this program is prohibited from giving any competitor of
 Gaussian, Inc. access to this program.  By using this program,
 the user acknowledges that Gaussian, Inc. is engaged in the
 business of creating and licensing software in the field of
 computational chemistry and represents and warrants to the
 licensee that it is not a competitor of Gaussian, Inc. and that
 it will not use this program in any manner prohibited above.
 ---------------------------------------------------------------
  

 Cite this work as:
 Gaussian 16, Revision A.03,
 M. J. Frisch, G. W. Trucks, H. B. Schlegel, G. E. Scuseria, 
 M. A. Robb, J. R. Cheeseman, G. Scalmani, V. Barone, 
 G. A. Petersson, H. Nakatsuji, X. Li, M. Caricato, A. V. Marenich, 
 J. Bloino, B. G. Janesko, R. Gomperts, B. Mennucci, H. P. Hratchian, 
 J. V. Ortiz, A. F. Izmaylov, J. L. Sonnenberg, D. Williams-Young, 
 F. Ding, F. Lipparini, F. Egidi, J. Goings, B. Peng, A. Petrone, 
 T. Henderson, D. Ranasinghe, V. G. Zakrzewski, J. Gao, N. Rega, 
 G. Zheng, W. Liang, M. Hada, M. Ehara, K. Toyota, R. Fukuda, 
 J. Hasegawa, M. Ishida, T. Nakajima, Y. Honda, O. Kitao, H. Nakai, 
 T. Vreven, K. Throssell, J. A. Montgomery, Jr., J. E. Peralta, 
 F. Ogliaro, M. J. Bearpark, J. J. Heyd, E. N. Brothers, K. N. Kudin, 
 V. N. Staroverov, T. A. Keith, R. Kobayashi, J. Normand, 
 K. Raghavachari, A. P. Rendell, J. C. Burant, S. S. Iyengar, 
 J. Tomasi, M. Cossi, J. M. Millam, M. Klene, C. Adamo, R. Cammi, 
 J. W. Ochterski, R. L. Martin, K. Morokuma, O. Farkas, 
 J. B. Foresman, and D. J. Fox, Gaussian, Inc., Wallingford CT, 2016.
 
 ******************************************
 Gaussian 16:  ES64L-G16RevA.03 25-Dec-2016
                14-Jan-2025 
 ******************************************
 %chk=1-2-3-5-TtFB.chk
 -----------------------------------------------
 #p PBE1PBE/6-311++G(d,p) density=current nosymm
 -----------------------------------------------
 1/30=1,38=1,172=1/1;
 2/12=2,15=1,17=6,18=5,40=1/2;
 3/5=4,6=6,7=1111,11=2,25=1,30=1,74=-13/1,2,3;
 4//1;
 5/5=2,38=5/2;
 6/7=2,8=2,9=2,10=2,22=-1,28=1/1;
 99/5=1,9=1/99;
 Leave Link    1 at Tue Jan 14 14:11:39 2025, MaxMem=           0 cpu:               0.0 elap:               0.0
 (Enter /sw/cluster/pub/apps//g16/l101.exe)
 ---------------
 1 2 3 4 TtFB SP
 ---------------
 Symbolic Z-matrix:
 Charge =  0 Multiplicity = 1
 C                     1.17674   0.67945   0. 
 C                     1.21177  -0.70334   0. 
 C                     0.00305  -1.37588  0. 
 C                    -1.20702  -0.69695   0. 
 C                    -1.18979   0.69052   0. 
 C                    -0.00317   1.40129   0. 
 H                     2.14755  -1.2471    0. 
 H                    -0.00649   2.48356  0. 
 F                    -0.01635  -2.70566   0. 
 F                    -2.3571   -1.36047  0. 
 F                    -2.35131   1.33827   0. 
 F                     2.33505   1.34791  0. 
 
 ITRead=  0  0  0  0  0  0  0  0  0  0  0  0
 MicOpt= -1 -1 -1 -1 -1 -1 -1 -1 -1 -1 -1 -1
 NAtoms=     12 NQM=       12 NQMF=       0 NMMI=      0 NMMIF=      0
                NMic=       0 NMicF=      0.
                    Isotopes and Nuclear Properties:
 (Nuclear quadrupole moments (NQMom) in fm**2, nuclear magnetic moments (NMagM)
  in nuclear magnetons)

  Atom         1           2           3           4           5           6           7           8           9          10
 IAtWgt=          12          12          12          12          12          12           1           1          19          19
 AtmWgt=  12.0000000  12.0000000  12.0000000  12.0000000  12.0000000  12.0000000   1.0078250   1.0078250  18.9984032  18.9984032
 NucSpn=           0           0           0           0           0           0           1           1           1           1
 AtZEff=  -0.0000000  -0.0000000  -0.0000000  -0.0000000  -0.0000000  -0.0000000  -0.0000000  -0.0000000  -0.0000000  -0.0000000
 NQMom=    0.0000000   0.0000000   0.0000000   0.0000000   0.0000000   0.0000000   0.0000000   0.0000000   0.0000000   0.0000000
 NMagM=    0.0000000   0.0000000   0.0000000   0.0000000   0.0000000   0.0000000   2.7928460   2.7928460   2.6288670   2.6288670
 AtZNuc=   6.0000000   6.0000000   6.0000000   6.0000000   6.0000000   6.0000000   1.0000000   1.0000000   9.0000000   9.0000000

  Atom        11          12
 IAtWgt=          19          19
 AtmWgt=  18.9984032  18.9984032
 NucSpn=           1           1
 AtZEff=  -0.0000000  -0.0000000
 NQMom=    0.0000000   0.0000000
 NMagM=    2.6288670   2.6288670
 AtZNuc=   9.0000000   9.0000000
 Leave Link  101 at Tue Jan 14 14:11:39 2025, MaxMem=   104857600 cpu:               0.0 elap:               0.0
 (Enter /sw/cluster/pub/apps//g16/l202.exe)
                          Input orientation:                          
 ---------------------------------------------------------------------
 Center     Atomic      Atomic             Coordinates (Angstroms)
 Number     Number       Type             X           Y           Z
 ---------------------------------------------------------------------
      1          6           0        1.176739    0.679446    0.000000
      2          6           0        1.211772   -0.703336    0.000000
      3          6           0        0.003052   -1.375883   -0.000000
      4          6           0       -1.207017   -0.696952    0.000000
      5          6           0       -1.189791    0.690519    0.000000
      6          6           0       -0.003172    1.401286    0.000000
      7          1           0        2.147548   -1.247104    0.000000
      8          1           0       -0.006493    2.483559   -0.000000
      9          9           0       -0.016345   -2.705663    0.000000
     10          9           0       -2.357104   -1.360468   -0.000000
     11          9           0       -2.351310    1.338271    0.000000
     12          9           0        2.335055    1.347908   -0.000000
 ---------------------------------------------------------------------
                    Distance matrix (angstroms):
                    1          2          3          4          5
     1  C    0.000000
     2  C    1.383225   0.000000
     3  C    2.366836   1.383229   0.000000
     4  C    2.752592   2.418797   1.387521   0.000000
     5  C    2.366555   2.776749   2.385978   1.387579   0.000000
     6  C    1.383200   2.430128   2.777176   2.419059   1.383204
     7  H    2.157328   1.082294   2.148359   3.399378   3.859043
     8  H    2.157513   3.411813   3.859454   3.399546   2.148299
     9  F    3.589207   2.348954   1.329921   2.335084   3.593192
    10  F    4.080355   3.628870   2.360207   1.327763   2.359909
    11  F    3.589036   4.106545   3.593001   2.334854   1.329929
    12  F    1.337362   2.338667   3.585704   4.089954   3.585623
                    6          7          8          9         10
     6  C    0.000000
     7  H    3.411681   0.000000
     8  H    1.082279   4.307870   0.000000
     9  F    4.106970   2.609564   5.189231   0.000000
    10  F    3.628813   4.506078   4.505765   2.699759   0.000000
    11  F    2.348984   5.188823   2.609570   4.669632   2.698746
    12  F    2.338836   2.601777   2.602412   4.686204   5.417717
                   11         12
    11  F    0.000000
    12  F    4.686375   0.000000
 Symmetry turned off by external request.
 Stoichiometry    C6H2F4
 Framework group  CS[SG(C6H2F4)]
 Deg. of freedom    21
 Full point group                 CS      NOp   2
 Rotational constants (GHZ):           1.7665873           1.2489631           0.7316748
 Leave Link  202 at Tue Jan 14 14:11:39 2025, MaxMem=   104857600 cpu:               0.0 elap:               0.0
 (Enter /sw/cluster/pub/apps//g16/l301.exe)
 Standard basis: 6-311++G(d,p) (5D, 7F)
 Ernie: Thresh=  0.10000D-02 Tol=  0.10000D-05 Strict=F.
   234 basis functions,   378 primitive gaussians,   244 cartesian basis functions
    37 alpha electrons       37 beta electrons
       nuclear repulsion energy       521.2759806058 Hartrees.
 IExCor= 1009 DFT=T Ex+Corr=PBE1PBE ExCW=0 ScaHFX=  0.250000
 ScaDFX=  0.750000  0.750000  1.000000  1.000000 ScalE2=  1.000000  1.000000
 IRadAn=      5 IRanWt=     -1 IRanGd=            0 ICorTp=0 IEmpDi=  4
 NAtoms=   12 NActive=   12 NUniq=   12 SFac= 1.00D+00 NAtFMM=   60 NAOKFM=F Big=F
 Integral buffers will be    131072 words long.
 Raffenetti 2 integral format.
 Two-electron integral symmetry is turned off.
 Leave Link  301 at Tue Jan 14 14:11:39 2025, MaxMem=   104857600 cpu:               0.0 elap:               0.0
 (Enter /sw/cluster/pub/apps//g16/l302.exe)
 NPDir=0 NMtPBC=     1 NCelOv=     1 NCel=       1 NClECP=     1 NCelD=      1
         NCelK=      1 NCelE2=     1 NClLst=     1 CellRange=     0.0.
 One-electron integrals computed using PRISM.
 NBasis=   234 RedAO= T EigKep=  2.28D-06  NBF=   234
 NBsUse=   234 1.00D-06 EigRej= -1.00D+00 NBFU=   234
 Precomputing XC quadrature grid using
 IXCGrd= 4 IRadAn=           5 IRanWt=          -1 IRanGd=           0 AccXCQ= 0.00D+00.
 Generated NRdTot=       0 NPtTot=           0 NUsed=           0 NTot=          32
 NSgBfM=   244   244   244   244   244 MxSgAt=    12 MxSgA2=    12.
 Leave Link  302 at Tue Jan 14 14:11:39 2025, MaxMem=   104857600 cpu:               0.2 elap:               0.2
 (Enter /sw/cluster/pub/apps//g16/l303.exe)
 DipDrv:  MaxL=1.
 Leave Link  303 at Tue Jan 14 14:11:39 2025, MaxMem=   104857600 cpu:               0.0 elap:               0.0
 (Enter /sw/cluster/pub/apps//g16/l401.exe)
 ExpMin= 3.60D-02 ExpMax= 1.14D+04 ExpMxC= 1.72D+03 IAcc=3 IRadAn=         5 AccDes= 0.00D+00
 Harris functional with IExCor= 1009 and IRadAn=       5 diagonalized for initial guess.
 HarFok:  IExCor= 1009 AccDes= 0.00D+00 IRadAn=         5 IDoV= 1 UseB2=F ITyADJ=14
 ICtDFT=  3500011 ScaDFX=  1.000000  1.000000  1.000000  1.000000
 FoFCou: FMM=F IPFlag=           0 FMFlag=      100000 FMFlg1=           0
         NFxFlg=           0 DoJE=T BraDBF=F KetDBF=T FulRan=T
         wScrn=  0.000000 ICntrl=       500 IOpCl=  0 I1Cent=   200000004 NGrid=           0
         NMat0=    1 NMatS0=      1 NMatT0=    0 NMatD0=    1 NMtDS0=    0 NMtDT0=    0
 Symmetry not used in FoFCou.
 Harris En= -628.754448010044    
 JPrj=0 DoOrth=F DoCkMO=F.
 Leave Link  401 at Tue Jan 14 14:11:41 2025, MaxMem=   104857600 cpu:               1.7 elap:               1.7
 (Enter /sw/cluster/pub/apps//g16/l502.exe)
 Two-electron integral symmetry not used.
 Closed shell SCF:
 Using DIIS extrapolation, IDIIS=  1040.
 NGot=   104857600 LenX=   104735324 LenY=   104675347
 Requested convergence on RMS density matrix=1.00D-08 within 128 cycles.
 Requested convergence on MAX density matrix=1.00D-06.
 Requested convergence on             energy=1.00D-06.
 No special actions if energy rises.
 Fock matrices will be formed incrementally for  20 cycles.

 Cycle   1  Pass 1  IDiag  1:
 FoFJK:  IHMeth= 1 ICntrl=       0 DoSepK=F KAlg= 0 I1Cent=           0 FoldK=F
 IRaf= 930000000 NMat=       1 IRICut=       1 DoRegI=T DoRafI=F ISym2E= 0 IDoP0=0 IntGTp=1.
 FoFCou: FMM=F IPFlag=           0 FMFlag=      100000 FMFlg1=           0
         NFxFlg=           0 DoJE=F BraDBF=F KetDBF=F FulRan=T
         wScrn=  0.000000 ICntrl=         0 IOpCl=  0 I1Cent=           0 NGrid=           0
         NMat0=    1 NMatS0=      1 NMatT0=    0 NMatD0=    1 NMtDS0=    0 NMtDT0=    0
 Symmetry not used in FoFCou.
 E= -628.606775609552    
 DIIS: error= 2.40D-02 at cycle   1 NSaved=   1.
 NSaved= 1 IEnMin= 1 EnMin= -628.606775609552     IErMin= 1 ErrMin= 2.40D-02
 ErrMax= 2.40D-02  0.00D+00 EMaxC= 1.00D-01 BMatC= 1.52D-01 BMatP= 1.52D-01
 IDIUse=3 WtCom= 7.60D-01 WtEn= 2.40D-01
 Coeff-Com:  0.100D+01
 Coeff-En:   0.100D+01
 Coeff:      0.100D+01
 Gap=     0.265 Goal=   None    Shift=    0.000
 GapD=    0.265 DampG=1.000 DampE=0.500 DampFc=0.5000 IDamp=-1.
 Damping current iteration by 5.00D-01
 RMSDP=1.41D-02 MaxDP=6.30D-01              OVMax= 2.65D-01

 Cycle   2  Pass 1  IDiag  1:
 RMSU=  6.51D-03    CP:  9.54D-01
 E= -628.657554013177     Delta-E=       -0.050778403625 Rises=F Damp=T
 DIIS: error= 5.52D-03 at cycle   2 NSaved=   2.
 NSaved= 2 IEnMin= 2 EnMin= -628.657554013177     IErMin= 2 ErrMin= 5.52D-03
 ErrMax= 5.52D-03  0.00D+00 EMaxC= 1.00D-01 BMatC= 1.39D-02 BMatP= 1.52D-01
 IDIUse=3 WtCom= 9.45D-01 WtEn= 5.52D-02
 Coeff-Com: -0.338D-01 0.103D+01
 Coeff-En:   0.692D-01 0.931D+00
 Coeff:     -0.281D-01 0.103D+01
 Gap=     0.288 Goal=   None    Shift=    0.000
 RMSDP=4.07D-03 MaxDP=1.91D-01 DE=-5.08D-02 OVMax= 2.01D-01

 Cycle   3  Pass 1  IDiag  1:
 RMSU=  3.18D-03    CP:  9.36D-01  1.35D+00
 E= -628.709239780744     Delta-E=       -0.051685767567 Rises=F Damp=F
 DIIS: error= 1.23D-02 at cycle   3 NSaved=   3.
 NSaved= 3 IEnMin= 3 EnMin= -628.709239780744     IErMin= 2 ErrMin= 5.52D-03
 ErrMax= 1.23D-02  0.00D+00 EMaxC= 1.00D-01 BMatC= 9.93D-03 BMatP= 1.39D-02
 IDIUse=3 WtCom= 8.77D-01 WtEn= 1.23D-01
 Coeff-Com: -0.963D-01 0.506D+00 0.591D+00
 Coeff-En:   0.000D+00 0.000D+00 0.100D+01
 Coeff:     -0.845D-01 0.443D+00 0.641D+00
 Gap=     0.247 Goal=   None    Shift=    0.000
 RMSDP=1.63D-03 MaxDP=8.81D-02 DE=-5.17D-02 OVMax= 7.10D-02

 Cycle   4  Pass 1  IDiag  1:
 RMSU=  9.80D-04    CP:  9.30D-01  1.44D+00  6.56D-01
 E= -628.716693751517     Delta-E=       -0.007453970773 Rises=F Damp=F
 DIIS: error= 5.42D-03 at cycle   4 NSaved=   4.
 NSaved= 4 IEnMin= 4 EnMin= -628.716693751517     IErMin= 4 ErrMin= 5.42D-03
 ErrMax= 5.42D-03  0.00D+00 EMaxC= 1.00D-01 BMatC= 2.62D-03 BMatP= 9.93D-03
 IDIUse=3 WtCom= 9.46D-01 WtEn= 5.42D-02
 Coeff-Com: -0.404D-01 0.131D+00 0.377D+00 0.532D+00
 Coeff-En:   0.000D+00 0.000D+00 0.223D+00 0.777D+00
 Coeff:     -0.382D-01 0.124D+00 0.369D+00 0.545D+00
 Gap=     0.245 Goal=   None    Shift=    0.000
 RMSDP=8.63D-04 MaxDP=3.57D-02 DE=-7.45D-03 OVMax= 2.34D-02

 Cycle   5  Pass 1  IDiag  1:
 RMSU=  3.06D-04    CP:  9.20D-01  1.41D+00  7.50D-01  5.40D-01
 E= -628.719138437512     Delta-E=       -0.002444685995 Rises=F Damp=F
 DIIS: error= 1.02D-03 at cycle   5 NSaved=   5.
 NSaved= 5 IEnMin= 5 EnMin= -628.719138437512     IErMin= 5 ErrMin= 1.02D-03
 ErrMax= 1.02D-03  0.00D+00 EMaxC= 1.00D-01 BMatC= 9.84D-05 BMatP= 2.62D-03
 IDIUse=3 WtCom= 9.90D-01 WtEn= 1.02D-02
 Coeff-Com: -0.135D-01 0.334D-01 0.155D+00 0.283D+00 0.542D+00
 Coeff-En:   0.000D+00 0.000D+00 0.000D+00 0.000D+00 0.100D+01
 Coeff:     -0.134D-01 0.331D-01 0.154D+00 0.280D+00 0.547D+00
 Gap=     0.245 Goal=   None    Shift=    0.000
 RMSDP=1.46D-04 MaxDP=5.33D-03 DE=-2.44D-03 OVMax= 5.19D-03

 Cycle   6  Pass 1  IDiag  1:
 RMSU=  7.70D-05    CP:  9.19D-01  1.43D+00  7.39D-01  5.39D-01  9.45D-01
 E= -628.719228609812     Delta-E=       -0.000090172300 Rises=F Damp=F
 DIIS: error= 1.48D-04 at cycle   6 NSaved=   6.
 NSaved= 6 IEnMin= 6 EnMin= -628.719228609812     IErMin= 6 ErrMin= 1.48D-04
 ErrMax= 1.48D-04  0.00D+00 EMaxC= 1.00D-01 BMatC= 4.11D-06 BMatP= 9.84D-05
 IDIUse=3 WtCom= 9.99D-01 WtEn= 1.48D-03
 Coeff-Com: -0.168D-02 0.214D-02 0.329D-01 0.701D-01 0.229D+00 0.667D+00
 Coeff-En:   0.000D+00 0.000D+00 0.000D+00 0.000D+00 0.000D+00 0.100D+01
 Coeff:     -0.168D-02 0.214D-02 0.329D-01 0.700D-01 0.229D+00 0.668D+00
 Gap=     0.245 Goal=   None    Shift=    0.000
 RMSDP=2.19D-05 MaxDP=5.68D-04 DE=-9.02D-05 OVMax= 8.87D-04

 Cycle   7  Pass 1  IDiag  1:
 RMSU=  1.19D-05    CP:  9.19D-01  1.43D+00  7.43D-01  5.47D-01  9.50D-01
                    CP:  8.63D-01
 E= -628.719231846722     Delta-E=       -0.000003236909 Rises=F Damp=F
 DIIS: error= 4.10D-05 at cycle   7 NSaved=   7.
 NSaved= 7 IEnMin= 7 EnMin= -628.719231846722     IErMin= 7 ErrMin= 4.10D-05
 ErrMax= 4.10D-05  0.00D+00 EMaxC= 1.00D-01 BMatC= 3.60D-07 BMatP= 4.11D-06
 IDIUse=1 WtCom= 1.00D+00 WtEn= 0.00D+00
 Coeff-Com: -0.487D-03 0.692D-04 0.129D-01 0.276D-01 0.994D-01 0.353D+00
 Coeff-Com:  0.507D+00
 Coeff:     -0.487D-03 0.692D-04 0.129D-01 0.276D-01 0.994D-01 0.353D+00
 Coeff:      0.507D+00
 Gap=     0.245 Goal=   None    Shift=    0.000
 RMSDP=1.52D-05 MaxDP=1.04D-03 DE=-3.24D-06 OVMax= 1.14D-04

 Cycle   8  Pass 1  IDiag  1:
 RMSU=  4.43D-06    CP:  9.19D-01  1.43D+00  7.44D-01  5.48D-01  9.32D-01
                    CP:  8.43D-01  6.63D-01
 E= -628.719232076384     Delta-E=       -0.000000229663 Rises=F Damp=F
 DIIS: error= 1.50D-05 at cycle   8 NSaved=   8.
 NSaved= 8 IEnMin= 8 EnMin= -628.719232076384     IErMin= 8 ErrMin= 1.50D-05
 ErrMax= 1.50D-05  0.00D+00 EMaxC= 1.00D-01 BMatC= 2.34D-08 BMatP= 3.60D-07
 IDIUse=1 WtCom= 1.00D+00 WtEn= 0.00D+00
 Coeff-Com:  0.193D-03-0.486D-03-0.562D-03-0.157D-02-0.444D-02 0.119D-01
 Coeff-Com:  0.197D+00 0.798D+00
 Coeff:      0.193D-03-0.486D-03-0.562D-03-0.157D-02-0.444D-02 0.119D-01
 Coeff:      0.197D+00 0.798D+00
 Gap=     0.245 Goal=   None    Shift=    0.000
 RMSDP=7.43D-06 MaxDP=4.10D-04 DE=-2.30D-07 OVMax= 4.08D-05

 Cycle   9  Pass 1  IDiag  1:
 RMSU=  6.91D-07    CP:  9.19D-01  1.43D+00  7.44D-01  5.47D-01  9.39D-01
                    CP:  8.62D-01  6.90D-01  9.17D-01
 E= -628.719232095207     Delta-E=       -0.000000018822 Rises=F Damp=F
 DIIS: error= 2.91D-06 at cycle   9 NSaved=   9.
 NSaved= 9 IEnMin= 9 EnMin= -628.719232095207     IErMin= 9 ErrMin= 2.91D-06
 ErrMax= 2.91D-06  0.00D+00 EMaxC= 1.00D-01 BMatC= 1.73D-09 BMatP= 2.34D-08
 IDIUse=1 WtCom= 1.00D+00 WtEn= 0.00D+00
 Coeff-Com:  0.114D-03-0.257D-03-0.653D-03-0.162D-02-0.552D-02-0.402D-02
 Coeff-Com:  0.847D-01 0.397D+00 0.530D+00
 Coeff:      0.114D-03-0.257D-03-0.653D-03-0.162D-02-0.552D-02-0.402D-02
 Coeff:      0.847D-01 0.397D+00 0.530D+00
 Gap=     0.245 Goal=   None    Shift=    0.000
 RMSDP=6.59D-07 MaxDP=2.35D-05 DE=-1.88D-08 OVMax= 7.82D-06

 Cycle  10  Pass 1  IDiag  1:
 RMSU=  2.54D-07    CP:  9.19D-01  1.43D+00  7.44D-01  5.47D-01  9.39D-01
                    CP:  8.62D-01  7.05D-01  9.23D-01  7.53D-01
 E= -628.719232096253     Delta-E=       -0.000000001047 Rises=F Damp=F
 DIIS: error= 8.39D-07 at cycle  10 NSaved=  10.
 NSaved=10 IEnMin=10 EnMin= -628.719232096253     IErMin=10 ErrMin= 8.39D-07
 ErrMax= 8.39D-07  0.00D+00 EMaxC= 1.00D-01 BMatC= 1.26D-10 BMatP= 1.73D-09
 IDIUse=1 WtCom= 1.00D+00 WtEn= 0.00D+00
 Coeff-Com:  0.199D-04-0.385D-04-0.115D-03-0.268D-03-0.123D-02-0.180D-02
 Coeff-Com:  0.537D-02 0.339D-01 0.214D+00 0.750D+00
 Coeff:      0.199D-04-0.385D-04-0.115D-03-0.268D-03-0.123D-02-0.180D-02
 Coeff:      0.537D-02 0.339D-01 0.214D+00 0.750D+00
 Gap=     0.245 Goal=   None    Shift=    0.000
 RMSDP=2.33D-07 MaxDP=8.25D-06 DE=-1.05D-09 OVMax= 3.15D-06

 Cycle  11  Pass 1  IDiag  1:
 RMSU=  6.79D-08    CP:  9.19D-01  1.43D+00  7.44D-01  5.47D-01  9.39D-01
                    CP:  8.62D-01  7.02D-01  9.31D-01  8.18D-01  8.09D-01
 E= -628.719232096338     Delta-E=       -0.000000000084 Rises=F Damp=F
 DIIS: error= 1.93D-07 at cycle  11 NSaved=  11.
 NSaved=11 IEnMin=11 EnMin= -628.719232096338     IErMin=11 ErrMin= 1.93D-07
 ErrMax= 1.93D-07  0.00D+00 EMaxC= 1.00D-01 BMatC= 9.02D-12 BMatP= 1.26D-10
 IDIUse=1 WtCom= 1.00D+00 WtEn= 0.00D+00
 Coeff-Com:  0.349D-05-0.546D-05-0.158D-04-0.400D-04-0.292D-03-0.516D-03
 Coeff-Com: -0.185D-02-0.719D-02 0.422D-01 0.279D+00 0.689D+00
 Coeff:      0.349D-05-0.546D-05-0.158D-04-0.400D-04-0.292D-03-0.516D-03
 Coeff:     -0.185D-02-0.719D-02 0.422D-01 0.279D+00 0.689D+00
 Gap=     0.245 Goal=   None    Shift=    0.000
 RMSDP=5.58D-08 MaxDP=2.53D-06 DE=-8.44D-11 OVMax= 1.39D-06

 Cycle  12  Pass 1  IDiag  1:
 RMSU=  1.65D-08    CP:  9.19D-01  1.43D+00  7.44D-01  5.47D-01  9.39D-01
                    CP:  8.62D-01  7.01D-01  9.30D-01  8.24D-01  8.42D-01
                    CP:  8.74D-01
 E= -628.719232096347     Delta-E=       -0.000000000009 Rises=F Damp=F
 DIIS: error= 9.73D-08 at cycle  12 NSaved=  12.
 NSaved=12 IEnMin=12 EnMin= -628.719232096347     IErMin=12 ErrMin= 9.73D-08
 ErrMax= 9.73D-08  0.00D+00 EMaxC= 1.00D-01 BMatC= 2.08D-12 BMatP= 9.02D-12
 IDIUse=1 WtCom= 1.00D+00 WtEn= 0.00D+00
 Coeff-Com: -0.819D-06 0.241D-05 0.114D-04 0.229D-04 0.149D-04-0.110D-05
 Coeff-Com: -0.217D-02-0.109D-01-0.628D-02 0.701D-01 0.395D+00 0.555D+00
 Coeff:     -0.819D-06 0.241D-05 0.114D-04 0.229D-04 0.149D-04-0.110D-05
 Coeff:     -0.217D-02-0.109D-01-0.628D-02 0.701D-01 0.395D+00 0.555D+00
 Gap=     0.245 Goal=   None    Shift=    0.000
 RMSDP=1.77D-08 MaxDP=7.83D-07 DE=-9.09D-12 OVMax= 2.69D-07

 Cycle  13  Pass 1  IDiag  1:
 RMSU=  6.89D-09    CP:  9.19D-01  1.43D+00  7.44D-01  5.47D-01  9.39D-01
                    CP:  8.62D-01  7.01D-01  9.31D-01  8.27D-01  8.58D-01
                    CP:  9.27D-01  8.50D-01
 E= -628.719232096344     Delta-E=        0.000000000003 Rises=F Damp=F
 DIIS: error= 9.77D-09 at cycle  13 NSaved=  13.
 NSaved=13 IEnMin=12 EnMin= -628.719232096347     IErMin=13 ErrMin= 9.77D-09
 ErrMax= 9.77D-09  0.00D+00 EMaxC= 1.00D-01 BMatC= 2.44D-14 BMatP= 2.08D-12
 IDIUse=1 WtCom= 1.00D+00 WtEn= 0.00D+00
 Coeff-Com: -0.139D-06 0.333D-06 0.281D-05 0.517D-05 0.139D-04 0.447D-04
 Coeff-Com: -0.134D-03-0.101D-02-0.438D-02-0.633D-02 0.187D-01 0.448D-01
 Coeff-Com:  0.948D+00
 Coeff:     -0.139D-06 0.333D-06 0.281D-05 0.517D-05 0.139D-04 0.447D-04
 Coeff:     -0.134D-03-0.101D-02-0.438D-02-0.633D-02 0.187D-01 0.448D-01
 Coeff:      0.948D+00
 Gap=     0.245 Goal=   None    Shift=    0.000
 RMSDP=7.19D-09 MaxDP=2.98D-07 DE= 3.18D-12 OVMax= 7.74D-08

 SCF Done:  E(RPBE1PBE) =  -628.719232096     A.U. after   13 cycles
            NFock= 13  Conv=0.72D-08     -V/T= 2.0027
 KE= 6.270053746714D+02 PE=-2.528378564245D+03 EE= 7.513779768714D+02
 Leave Link  502 at Tue Jan 14 14:12:37 2025, MaxMem=   104857600 cpu:              55.8 elap:              55.9
 (Enter /sw/cluster/pub/apps//g16/l601.exe)
 Copying SCF densities to generalized density rwf, IOpCl= 0 IROHF=0.

 **********************************************************************

            Population analysis using the SCF density.

 **********************************************************************

 Alpha  occ. eigenvalues --  -24.81592 -24.81590 -24.81485 -24.80836 -10.35408
 Alpha  occ. eigenvalues --  -10.35406 -10.34955 -10.34503 -10.26698 -10.26696
 Alpha  occ. eigenvalues --   -1.31180  -1.30274  -1.29418  -1.29211  -0.93972
 Alpha  occ. eigenvalues --   -0.82427  -0.81647  -0.70409  -0.69101  -0.62981
 Alpha  occ. eigenvalues --   -0.60916  -0.60172  -0.56353  -0.55519  -0.54920
 Alpha  occ. eigenvalues --   -0.51773  -0.51570  -0.51479  -0.49814  -0.48871
 Alpha  occ. eigenvalues --   -0.47242  -0.44423  -0.42309  -0.41223  -0.39075
 Alpha  occ. eigenvalues --   -0.29799  -0.28329
 Alpha virt. eigenvalues --   -0.03848  -0.02604  -0.00874   0.00873   0.01833
 Alpha virt. eigenvalues --    0.04068   0.05302   0.05441   0.07446   0.07861
 Alpha virt. eigenvalues --    0.09127   0.09170   0.10377   0.11589   0.12360
 Alpha virt. eigenvalues --    0.12723   0.12974   0.13227   0.13330   0.13523
 Alpha virt. eigenvalues --    0.14544   0.14875   0.16171   0.16972   0.17986
 Alpha virt. eigenvalues --    0.18271   0.19341   0.20303   0.20663   0.21790
 Alpha virt. eigenvalues --    0.24471   0.25949   0.26045   0.26291   0.27072
 Alpha virt. eigenvalues --    0.28673   0.30103   0.33068   0.33359   0.34585
 Alpha virt. eigenvalues --    0.34700   0.34903   0.35660   0.36746   0.37934
 Alpha virt. eigenvalues --    0.39345   0.39933   0.40512   0.40636   0.42591
 Alpha virt. eigenvalues --    0.43616   0.44153   0.44730   0.49405   0.50036
 Alpha virt. eigenvalues --    0.51420   0.52814   0.55413   0.56132   0.56323
 Alpha virt. eigenvalues --    0.56794   0.57371   0.60732   0.62160   0.64316
 Alpha virt. eigenvalues --    0.67963   0.69628   0.70728   0.71754   0.75382
 Alpha virt. eigenvalues --    0.78888   0.81101   0.83331   0.83728   0.89959
 Alpha virt. eigenvalues --    0.89971   0.92515   0.94363   0.94449   0.97134
 Alpha virt. eigenvalues --    1.00658   1.02078   1.02626   1.05728   1.06329
 Alpha virt. eigenvalues --    1.12756   1.16938   1.18518   1.24084   1.31770
 Alpha virt. eigenvalues --    1.38060   1.41041   1.41185   1.42845   1.43350
 Alpha virt. eigenvalues --    1.43453   1.44441   1.45052   1.47003   1.52740
 Alpha virt. eigenvalues --    1.53001   1.53231   1.53946   1.54572   1.57837
 Alpha virt. eigenvalues --    1.58081   1.58096   1.59454   1.65528   1.75170
 Alpha virt. eigenvalues --    1.77870   1.80569   1.82547   1.86183   1.86920
 Alpha virt. eigenvalues --    1.92615   1.92679   1.94453   1.97550   2.04110
 Alpha virt. eigenvalues --    2.04773   2.06280   2.08446   2.09124   2.14682
 Alpha virt. eigenvalues --    2.16490   2.23795   2.27695   2.27723   2.35878
 Alpha virt. eigenvalues --    2.51880   2.52736   2.59564   2.66942   2.70740
 Alpha virt. eigenvalues --    2.71762   2.73018   2.73084   2.75786   2.84348
 Alpha virt. eigenvalues --    2.86206   3.06548   3.09553   3.13093   3.13968
 Alpha virt. eigenvalues --    3.19199   3.23904   3.35583   3.40324   3.62492
 Alpha virt. eigenvalues --    3.62524   3.73948   3.76401   3.77427   3.77949
 Alpha virt. eigenvalues --    3.78544   3.78629   3.83861   3.85458   3.87287
 Alpha virt. eigenvalues --    3.95300   3.99056   3.99100   4.00350   4.02444
 Alpha virt. eigenvalues --    4.03654   4.12594   4.14638   4.14824   4.22547
 Alpha virt. eigenvalues --    4.75951   4.84915   4.88387   4.88744   4.98020
 Alpha virt. eigenvalues --    6.30974   6.34581   6.34960   6.38375   6.40879
 Alpha virt. eigenvalues --    6.47137   6.47229   6.54431   6.63943   6.81074
 Alpha virt. eigenvalues --    6.82695   6.90157  23.53228  23.93780  23.96085
 Alpha virt. eigenvalues --   24.10007  24.16568  24.25295  66.89704  66.93248
 Alpha virt. eigenvalues --   66.93671  66.97031
          Condensed to atoms (all electrons):
               1          2          3          4          5          6
     1  C   10.113790  -2.728747   2.163173  -2.538647   2.163693  -2.732272
     2  C   -2.728747  12.681122  -1.651538  -0.657253  -2.913465   0.659893
     3  C    2.163173  -1.651538  12.512056  -2.173772  -1.805779  -2.912141
     4  C   -2.538647  -0.657253  -2.173772  13.928382  -2.178409  -0.658104
     5  C    2.163693  -2.913465  -1.805779  -2.178409  12.519412  -1.653518
     6  C   -2.732272   0.659893  -2.912141  -0.658104  -1.653518  12.685971
     7  H   -0.148354   0.600802  -0.112868  -0.009354  -0.018835  -0.021326
     8  H   -0.148508  -0.021258  -0.018870  -0.009289  -0.112965   0.600958
     9  F   -0.012592  -0.245595   0.571201  -0.262011  -0.032027   0.014238
    10  F    0.000587  -0.067491  -0.253379   0.663012  -0.253416  -0.067478
    11  F   -0.012542   0.014209  -0.031947  -0.262195   0.571490  -0.245709
    12  F    0.583964  -0.296872   0.037013  -0.024781   0.036996  -0.296733
               7          8          9         10         11         12
     1  C   -0.148354  -0.148508  -0.012592   0.000587  -0.012542   0.583964
     2  C    0.600802  -0.021258  -0.245595  -0.067491   0.014209  -0.296872
     3  C   -0.112868  -0.018870   0.571201  -0.253379  -0.031947   0.037013
     4  C   -0.009354  -0.009289  -0.262011   0.663012  -0.262195  -0.024781
     5  C   -0.018835  -0.112965  -0.032027  -0.253416   0.571490   0.036996
     6  C   -0.021326   0.600958   0.014238  -0.067478  -0.245709  -0.296733
     7  H    0.469291   0.000355  -0.020416  -0.000284   0.000512  -0.017603
     8  H    0.000355   0.469274   0.000512  -0.000284  -0.020414  -0.017593
     9  F   -0.020416   0.000512   9.131957   0.008013   0.000220  -0.000360
    10  F   -0.000284  -0.000284   0.008013   9.152010   0.008039   0.000108
    11  F    0.000512  -0.020414   0.000220   0.008039   9.131791  -0.000360
    12  F   -0.017603  -0.017593  -0.000360   0.000108  -0.000360   9.141678
 Mulliken charges:
               1
     1  C   -0.703545
     2  C    0.626193
     3  C   -0.323149
     4  C    0.182422
     5  C   -0.323177
     6  C    0.626221
     7  H    0.278080
     8  H    0.278083
     9  F   -0.153140
    10  F   -0.189437
    11  F   -0.153093
    12  F   -0.145459
 Sum of Mulliken charges =  -0.00000
 Mulliken charges with hydrogens summed into heavy atoms:
               1
     1  C   -0.703545
     2  C    0.904273
     3  C   -0.323149
     4  C    0.182422
     5  C   -0.323177
     6  C    0.904305
     9  F   -0.153140
    10  F   -0.189437
    11  F   -0.153093
    12  F   -0.145459
 Electronic spatial extent (au):  <R**2>=           1357.3251
 Charge=             -0.0000 electrons
 Dipole moment (field-independent basis, Debye):
    X=              1.2756    Y=              0.7368    Z=              0.0000  Tot=              1.4731
 Quadrupole moment (field-independent basis, Debye-Ang):
   XX=            -58.9001   YY=            -55.0023   ZZ=            -53.7176
   XY=             -3.3707   XZ=              0.0000   YZ=             -0.0000
 Traceless Quadrupole moment (field-independent basis, Debye-Ang):
   XX=             -3.0267   YY=              0.8710   ZZ=              2.1557
   XY=             -3.3707   XZ=              0.0000   YZ=             -0.0000
 Octapole moment (field-independent basis, Debye-Ang**2):
  XXX=             42.9447  YYY=             37.2138  ZZZ=             -0.0000  XYY=             14.3106
  XXY=             -4.1463  XXZ=              0.0000  XZZ=              8.9814  YZZ=              5.1869
  YYZ=             -0.0000  XYZ=              0.0000
 Hexadecapole moment (field-independent basis, Debye-Ang**3):
 XXXX=           -781.5697 YYYY=           -649.7249 ZZZZ=            -50.6061 XXXY=            -65.1273
 XXXZ=             -0.0000 YYYX=            -48.9909 YYYZ=             -0.0000 ZZZX=             -0.0000
 ZZZY=             -0.0000 XXYY=           -244.7547 XXZZ=           -130.3629 YYZZ=           -115.4412
 XXYZ=             -0.0000 YYXZ=             -0.0000 ZZXY=            -12.9160
 N-N= 5.212759806058D+02 E-N=-2.528378563369D+03  KE= 6.270053746714D+02
 No NMR shielding tensors so no spin-rotation constants.
 Leave Link  601 at Tue Jan 14 14:12:37 2025, MaxMem=   104857600 cpu:               0.1 elap:               0.1
 (Enter /sw/cluster/pub/apps//g16/l9999.exe)
 1\1\GINC-N04\SP\RPBE1PBE\6-311++G(d,p)\C6H2F4\UNKNOWN\14-Jan-2025\0\\#
 p PBE1PBE/6-311++G(d,p) density=current nosymm\\1 2 3 4 TtFB SP\\0,1\C
 ,0,1.17673882,0.679445522,0.000000002\C,0,1.211772021,-0.703335895,0.\
 C,0,0.003052224,-1.375882824,-0.000000001\C,0,-1.207016871,-0.69695243
 ,0.000000001\C,0,-1.18979058,0.690519355,0.\C,0,-0.003171776,1.4012859
 73,0.\H,0,2.147547864,-1.247104112,0.\H,0,-0.006492682,2.483559383,-0.
 000000001\F,0,-0.016345011,-2.705662525,0.\F,0,-2.357104187,-1.3604681
 77,-0.000000001\F,0,-2.351310024,1.338271212,0.\F,0,2.33505472,1.34790
 77,-0.000000001\\Version=ES64L-G16RevA.03\HF=-628.7192321\RMSD=7.189e-
 09\Dipole=0.5018757,0.2898617,0.\Quadrupole=-2.2503095,0.6475898,1.602
 7197,-2.5060272,0.,0.\PG=CS [SG(C6H2F4)]\\@


 NOTHING PUZZLES ME MORE THAN TIME AND SPACE; AND YET NOTHING TROUBLES ME LESS
                                                          -- CHARLES LAMB (1810)
 Job cpu time:       0 days  0 hours  0 minutes 57.9 seconds.
 Elapsed time:       0 days  0 hours  0 minutes 58.0 seconds.
 File lengths (MBytes):  RWF=     34 Int=      0 D2E=      0 Chk=      4 Scr=      1
 Normal termination of Gaussian 16 at Tue Jan 14 14:12:37 2025.
