 Entering Gaussian System, Link 0=g16
 Initial command:
 /sw/cluster/pub/apps//g16/l1.exe "/data/natrosa/28478/Gau-5752.inp" -scrdir="/data/natrosa/28478/"
 Entering Link 1 = /sw/cluster/pub/apps//g16/l1.exe PID=      5753.
  
 Copyright (c) 1988,1990,1992,1993,1995,1998,2003,2009,2016,
            Gaussian, Inc.  All Rights Reserved.
  
 This is part of the Gaussian(R) 16 program.  It is based on
 the Gaussian(R) 09 system (copyright 2009, Gaussian, Inc.),
 the Gaussian(R) 03 system (copyright 2003, Gaussian, Inc.),
 the Gaussian(R) 98 system (copyright 1998, Gaussian, Inc.),
 the Gaussian(R) 94 system (copyright 1995, Gaussian, Inc.),
 the Gaussian 92(TM) system (copyright 1992, Gaussian, Inc.),
 the Gaussian 90(TM) system (copyright 1990, Gaussian, Inc.),
 the Gaussian 88(TM) system (copyright 1988, Gaussian, Inc.),
 the Gaussian 86(TM) system (copyright 1986, Carnegie Mellon
 University), and the Gaussian 82(TM) system (copyright 1983,
 Carnegie Mellon University). Gaussian is a federally registered
 trademark of Gaussian, Inc.
  
 This software contains proprietary and confidential information,
 including trade secrets, belonging to Gaussian, Inc.
  
 This software is provided under written license and may be
 used, copied, transmitted, or stored only in accord with that
 written license.
  
 The following legend is applicable only to US Government
 contracts under FAR:
  
                    RESTRICTED RIGHTS LEGEND
  
 Use, reproduction and disclosure by the US Government is
 subject to restrictions as set forth in subparagraphs (a)
 and (c) of the Commercial Computer Software - Restricted
 Rights clause in FAR 52.227-19.
  
 Gaussian, Inc.
 340 Quinnipiac St., Bldg. 40, Wallingford CT 06492
  
  
 ---------------------------------------------------------------
 Warning -- This program may not be used in any manner that
 competes with the business of Gaussian, Inc. or will provide
 assistance to any competitor of Gaussian, Inc.  The licensee
 of this program is prohibited from giving any competitor of
 Gaussian, Inc. access to this program.  By using this program,
 the user acknowledges that Gaussian, Inc. is engaged in the
 business of creating and licensing software in the field of
 computational chemistry and represents and warrants to the
 licensee that it is not a competitor of Gaussian, Inc. and that
 it will not use this program in any manner prohibited above.
 ---------------------------------------------------------------
  

 Cite this work as:
 Gaussian 16, Revision A.03,
 M. J. Frisch, G. W. Trucks, H. B. Schlegel, G. E. Scuseria, 
 M. A. Robb, J. R. Cheeseman, G. Scalmani, V. Barone, 
 G. A. Petersson, H. Nakatsuji, X. Li, M. Caricato, A. V. Marenich, 
 J. Bloino, B. G. Janesko, R. Gomperts, B. Mennucci, H. P. Hratchian, 
 J. V. Ortiz, A. F. Izmaylov, J. L. Sonnenberg, D. Williams-Young, 
 F. Ding, F. Lipparini, F. Egidi, J. Goings, B. Peng, A. Petrone, 
 T. Henderson, D. Ranasinghe, V. G. Zakrzewski, J. Gao, N. Rega, 
 G. Zheng, W. Liang, M. Hada, M. Ehara, K. Toyota, R. Fukuda, 
 J. Hasegawa, M. Ishida, T. Nakajima, Y. Honda, O. Kitao, H. Nakai, 
 T. Vreven, K. Throssell, J. A. Montgomery, Jr., J. E. Peralta, 
 F. Ogliaro, M. J. Bearpark, J. J. Heyd, E. N. Brothers, K. N. Kudin, 
 V. N. Staroverov, T. A. Keith, R. Kobayashi, J. Normand, 
 K. Raghavachari, A. P. Rendell, J. C. Burant, S. S. Iyengar, 
 J. Tomasi, M. Cossi, J. M. Millam, M. Klene, C. Adamo, R. Cammi, 
 J. W. Ochterski, R. L. Martin, K. Morokuma, O. Farkas, 
 J. B. Foresman, and D. J. Fox, Gaussian, Inc., Wallingford CT, 2016.
 
 ******************************************
 Gaussian 16:  ES64L-G16RevA.03 25-Dec-2016
                30-Jan-2025 
 ******************************************
 %chk=1-2-3-5-TtFB-ANI.chk
 --------------------------------------------------------
 #p opt freq PBE1PBE/6-311++G(d,p) density=current nosymm
 --------------------------------------------------------
 1/18=20,19=15,26=3,38=1/1,3;
 2/9=110,12=2,15=1,17=6,18=5,40=1/2;
 3/5=4,6=6,7=1111,11=2,25=1,30=1,71=1,74=-13/1,2,3;
 4//1;
 5/5=2,38=5/2;
 6/7=2,8=2,9=2,10=2,22=-1,28=1/1;
 7/30=1/1,2,3,16;
 1/18=20,19=15,26=3/3(2);
 2/9=110,15=1/2;
 99//99;
 2/9=110,15=1/2;
 3/5=4,6=6,7=1111,11=2,25=1,30=1,71=1,74=-13/1,2,3;
 4/5=5,16=3,69=1/1;
 5/5=2,38=5/2;
 7/30=1/1,2,3,16;
 1/18=20,19=15,26=3/3(-5);
 2/9=110,15=1/2;
 6/7=2,8=2,9=2,10=2,19=2,22=-1,28=1/1;
 99/9=1/99;
 Leave Link    1 at Thu Jan 30 14:23:14 2025, MaxMem=           0 cpu:               0.0 elap:               0.0
 (Enter /sw/cluster/pub/apps//g16/l101.exe)
 ---------------
 1 2 3 4 TtFB SP
 ---------------
 Symbolic Z-matrix:
 Charge = -1 Multiplicity = 2
 C                     1.17674   0.67945   0. 
 C                     1.21177  -0.70334   0. 
 C                     0.00305  -1.37588  0. 
 C                    -1.20702  -0.69695   0. 
 C                    -1.18979   0.69052   0. 
 C                    -0.00317   1.40129   0. 
 H                     2.14755  -1.2471    0. 
 H                    -0.00649   2.48356  0. 
 F                    -0.01635  -2.70566   0. 
 F                    -2.3571   -1.36047  0. 
 F                    -2.35131   1.33827   0. 
 F                     2.33505   1.34791  0. 
 
 ITRead=  0  0  0  0  0  0  0  0  0  0  0  0
 MicOpt= -1 -1 -1 -1 -1 -1 -1 -1 -1 -1 -1 -1
 NAtoms=     12 NQM=       12 NQMF=       0 NMMI=      0 NMMIF=      0
                NMic=       0 NMicF=      0.
                    Isotopes and Nuclear Properties:
 (Nuclear quadrupole moments (NQMom) in fm**2, nuclear magnetic moments (NMagM)
  in nuclear magnetons)

  Atom         1           2           3           4           5           6           7           8           9          10
 IAtWgt=          12          12          12          12          12          12           1           1          19          19
 AtmWgt=  12.0000000  12.0000000  12.0000000  12.0000000  12.0000000  12.0000000   1.0078250   1.0078250  18.9984032  18.9984032
 NucSpn=           0           0           0           0           0           0           1           1           1           1
 AtZEff=  -0.0000000  -0.0000000  -0.0000000  -0.0000000  -0.0000000  -0.0000000  -0.0000000  -0.0000000  -0.0000000  -0.0000000
 NQMom=    0.0000000   0.0000000   0.0000000   0.0000000   0.0000000   0.0000000   0.0000000   0.0000000   0.0000000   0.0000000
 NMagM=    0.0000000   0.0000000   0.0000000   0.0000000   0.0000000   0.0000000   2.7928460   2.7928460   2.6288670   2.6288670
 AtZNuc=   6.0000000   6.0000000   6.0000000   6.0000000   6.0000000   6.0000000   1.0000000   1.0000000   9.0000000   9.0000000

  Atom        11          12
 IAtWgt=          19          19
 AtmWgt=  18.9984032  18.9984032
 NucSpn=           1           1
 AtZEff=  -0.0000000  -0.0000000
 NQMom=    0.0000000   0.0000000
 NMagM=    2.6288670   2.6288670
 AtZNuc=   9.0000000   9.0000000
 Leave Link  101 at Thu Jan 30 14:23:14 2025, MaxMem=   104857600 cpu:               0.0 elap:               0.0
 (Enter /sw/cluster/pub/apps//g16/l103.exe)

 GradGradGradGradGradGradGradGradGradGradGradGradGradGradGradGradGradGrad
 Berny optimization.
 Initialization pass.
                           ----------------------------
                           !    Initial Parameters    !
                           ! (Angstroms and Degrees)  !
 --------------------------                            --------------------------
 ! Name  Definition              Value          Derivative Info.                !
 --------------------------------------------------------------------------------
 ! R1    R(1,2)                  1.3832         estimate D2E/DX2                !
 ! R2    R(1,6)                  1.3832         estimate D2E/DX2                !
 ! R3    R(1,12)                 1.3374         estimate D2E/DX2                !
 ! R4    R(2,3)                  1.3832         estimate D2E/DX2                !
 ! R5    R(2,7)                  1.0823         estimate D2E/DX2                !
 ! R6    R(3,4)                  1.3875         estimate D2E/DX2                !
 ! R7    R(3,9)                  1.3299         estimate D2E/DX2                !
 ! R8    R(4,5)                  1.3876         estimate D2E/DX2                !
 ! R9    R(4,10)                 1.3278         estimate D2E/DX2                !
 ! R10   R(5,6)                  1.3832         estimate D2E/DX2                !
 ! R11   R(5,11)                 1.3299         estimate D2E/DX2                !
 ! R12   R(6,8)                  1.0823         estimate D2E/DX2                !
 ! A1    A(2,1,6)              122.9086         estimate D2E/DX2                !
 ! A2    A(2,1,12)             118.5379         estimate D2E/DX2                !
 ! A3    A(6,1,12)             118.5536         estimate D2E/DX2                !
 ! A4    A(1,2,3)              117.6408         estimate D2E/DX2                !
 ! A5    A(1,2,7)              121.6117         estimate D2E/DX2                !
 ! A6    A(3,2,7)              120.7475         estimate D2E/DX2                !
 ! A7    A(2,3,4)              121.6125         estimate D2E/DX2                !
 ! A8    A(2,3,9)              119.9278         estimate D2E/DX2                !
 ! A9    A(4,3,9)              118.4597         estimate D2E/DX2                !
 ! A10   A(3,4,5)              118.584          estimate D2E/DX2                !
 ! A11   A(3,4,10)             120.7229         estimate D2E/DX2                !
 ! A12   A(5,4,10)             120.6931         estimate D2E/DX2                !
 ! A13   A(4,5,6)              121.6323         estimate D2E/DX2                !
 ! A14   A(4,5,11)             118.436          estimate D2E/DX2                !
 ! A15   A(6,5,11)             119.9317         estimate D2E/DX2                !
 ! A16   A(1,6,5)              117.6218         estimate D2E/DX2                !
 ! A17   A(1,6,8)              121.6331         estimate D2E/DX2                !
 ! A18   A(5,6,8)              120.7452         estimate D2E/DX2                !
 ! D1    D(6,1,2,3)              0.0            estimate D2E/DX2                !
 ! D2    D(6,1,2,7)            180.0            estimate D2E/DX2                !
 ! D3    D(12,1,2,3)           180.0            estimate D2E/DX2                !
 ! D4    D(12,1,2,7)             0.0            estimate D2E/DX2                !
 ! D5    D(2,1,6,5)              0.0            estimate D2E/DX2                !
 ! D6    D(2,1,6,8)            180.0            estimate D2E/DX2                !
 ! D7    D(12,1,6,5)           180.0            estimate D2E/DX2                !
 ! D8    D(12,1,6,8)             0.0            estimate D2E/DX2                !
 ! D9    D(1,2,3,4)              0.0            estimate D2E/DX2                !
 ! D10   D(1,2,3,9)            180.0            estimate D2E/DX2                !
 ! D11   D(7,2,3,4)            180.0            estimate D2E/DX2                !
 ! D12   D(7,2,3,9)              0.0            estimate D2E/DX2                !
 ! D13   D(2,3,4,5)              0.0            estimate D2E/DX2                !
 ! D14   D(2,3,4,10)           180.0            estimate D2E/DX2                !
 ! D15   D(9,3,4,5)            180.0            estimate D2E/DX2                !
 ! D16   D(9,3,4,10)             0.0            estimate D2E/DX2                !
 ! D17   D(3,4,5,6)              0.0            estimate D2E/DX2                !
 ! D18   D(3,4,5,11)           180.0            estimate D2E/DX2                !
 ! D19   D(10,4,5,6)           180.0            estimate D2E/DX2                !
 ! D20   D(10,4,5,11)            0.0            estimate D2E/DX2                !
 ! D21   D(4,5,6,1)              0.0            estimate D2E/DX2                !
 ! D22   D(4,5,6,8)            180.0            estimate D2E/DX2                !
 ! D23   D(11,5,6,1)           180.0            estimate D2E/DX2                !
 ! D24   D(11,5,6,8)             0.0            estimate D2E/DX2                !
 --------------------------------------------------------------------------------
 Trust Radius=3.00D-01 FncErr=1.00D-07 GrdErr=1.00D-06 EigMax=2.50D+02 EigMin=1.00D-04
 Number of steps in this run=     64 maximum allowed number of steps=    100.
 GradGradGradGradGradGradGradGradGradGradGradGradGradGradGradGradGradGrad

 Leave Link  103 at Thu Jan 30 14:23:14 2025, MaxMem=   104857600 cpu:               0.0 elap:               0.0
 (Enter /sw/cluster/pub/apps//g16/l202.exe)
                          Input orientation:                          
 ---------------------------------------------------------------------
 Center     Atomic      Atomic             Coordinates (Angstroms)
 Number     Number       Type             X           Y           Z
 ---------------------------------------------------------------------
      1          6           0        1.176739    0.679446    0.000000
      2          6           0        1.211772   -0.703336    0.000000
      3          6           0        0.003052   -1.375883   -0.000000
      4          6           0       -1.207017   -0.696952    0.000000
      5          6           0       -1.189791    0.690519    0.000000
      6          6           0       -0.003172    1.401286    0.000000
      7          1           0        2.147548   -1.247104    0.000000
      8          1           0       -0.006493    2.483559   -0.000000
      9          9           0       -0.016345   -2.705663    0.000000
     10          9           0       -2.357104   -1.360468   -0.000000
     11          9           0       -2.351310    1.338271    0.000000
     12          9           0        2.335055    1.347908   -0.000000
 ---------------------------------------------------------------------
                    Distance matrix (angstroms):
                    1          2          3          4          5
     1  C    0.000000
     2  C    1.383225   0.000000
     3  C    2.366836   1.383229   0.000000
     4  C    2.752592   2.418797   1.387521   0.000000
     5  C    2.366555   2.776749   2.385978   1.387579   0.000000
     6  C    1.383200   2.430128   2.777176   2.419059   1.383204
     7  H    2.157328   1.082294   2.148359   3.399378   3.859043
     8  H    2.157513   3.411813   3.859454   3.399546   2.148299
     9  F    3.589207   2.348954   1.329921   2.335084   3.593192
    10  F    4.080355   3.628870   2.360207   1.327763   2.359909
    11  F    3.589036   4.106545   3.593001   2.334854   1.329929
    12  F    1.337362   2.338667   3.585704   4.089954   3.585623
                    6          7          8          9         10
     6  C    0.000000
     7  H    3.411681   0.000000
     8  H    1.082279   4.307870   0.000000
     9  F    4.106970   2.609564   5.189231   0.000000
    10  F    3.628813   4.506078   4.505765   2.699759   0.000000
    11  F    2.348984   5.188823   2.609570   4.669632   2.698746
    12  F    2.338836   2.601777   2.602412   4.686204   5.417717
                   11         12
    11  F    0.000000
    12  F    4.686375   0.000000
 Symmetry turned off by external request.
 Stoichiometry    C6H2F4(1-,2)
 Framework group  CS[SG(C6H2F4)]
 Deg. of freedom    21
 Full point group                 CS      NOp   2
 Rotational constants (GHZ):           1.7665873           1.2489631           0.7316748
 Leave Link  202 at Thu Jan 30 14:23:14 2025, MaxMem=   104857600 cpu:               0.0 elap:               0.0
 (Enter /sw/cluster/pub/apps//g16/l301.exe)
 Standard basis: 6-311++G(d,p) (5D, 7F)
 Ernie: Thresh=  0.10000D-02 Tol=  0.10000D-05 Strict=F.
   234 basis functions,   378 primitive gaussians,   244 cartesian basis functions
    38 alpha electrons       37 beta electrons
       nuclear repulsion energy       521.2759806058 Hartrees.
 IExCor= 1009 DFT=T Ex+Corr=PBE1PBE ExCW=0 ScaHFX=  0.250000
 ScaDFX=  0.750000  0.750000  1.000000  1.000000 ScalE2=  1.000000  1.000000
 IRadAn=      5 IRanWt=     -1 IRanGd=            0 ICorTp=0 IEmpDi=  4
 NAtoms=   12 NActive=   12 NUniq=   12 SFac= 1.00D+00 NAtFMM=   60 NAOKFM=F Big=F
 Integral buffers will be    131072 words long.
 Raffenetti 2 integral format.
 Two-electron integral symmetry is turned off.
 Leave Link  301 at Thu Jan 30 14:23:14 2025, MaxMem=   104857600 cpu:               0.0 elap:               0.0
 (Enter /sw/cluster/pub/apps//g16/l302.exe)
 NPDir=0 NMtPBC=     1 NCelOv=     1 NCel=       1 NClECP=     1 NCelD=      1
         NCelK=      1 NCelE2=     1 NClLst=     1 CellRange=     0.0.
 One-electron integrals computed using PRISM.
 NBasis=   234 RedAO= T EigKep=  2.28D-06  NBF=   234
 NBsUse=   234 1.00D-06 EigRej= -1.00D+00 NBFU=   234
 Precomputing XC quadrature grid using
 IXCGrd= 4 IRadAn=           5 IRanWt=          -1 IRanGd=           0 AccXCQ= 0.00D+00.
 Generated NRdTot=       0 NPtTot=           0 NUsed=           0 NTot=          32
 NSgBfM=   244   244   244   244   244 MxSgAt=    12 MxSgA2=    12.
 Leave Link  302 at Thu Jan 30 14:23:15 2025, MaxMem=   104857600 cpu:               0.1 elap:               0.1
 (Enter /sw/cluster/pub/apps//g16/l303.exe)
 DipDrv:  MaxL=1.
 Leave Link  303 at Thu Jan 30 14:23:15 2025, MaxMem=   104857600 cpu:               0.0 elap:               0.0
 (Enter /sw/cluster/pub/apps//g16/l401.exe)
 ExpMin= 3.60D-02 ExpMax= 1.14D+04 ExpMxC= 1.72D+03 IAcc=3 IRadAn=         5 AccDes= 0.00D+00
 Harris functional with IExCor= 1009 and IRadAn=       5 diagonalized for initial guess.
 HarFok:  IExCor= 1009 AccDes= 0.00D+00 IRadAn=         5 IDoV= 1 UseB2=F ITyADJ=14
 ICtDFT=  3500011 ScaDFX=  1.000000  1.000000  1.000000  1.000000
 FoFCou: FMM=F IPFlag=           0 FMFlag=      100000 FMFlg1=           0
         NFxFlg=           0 DoJE=T BraDBF=F KetDBF=T FulRan=T
         wScrn=  0.000000 ICntrl=       500 IOpCl=  0 I1Cent=   200000004 NGrid=           0
         NMat0=    1 NMatS0=      1 NMatT0=    0 NMatD0=    1 NMtDS0=    0 NMtDT0=    0
 Symmetry not used in FoFCou.
 Harris En= -628.879946611302    
 JPrj=0 DoOrth=F DoCkMO=F.
 Initial guess <Sx>= 0.0000 <Sy>= 0.0000 <Sz>= 0.5000 <S**2>= 0.7500 S= 0.5000
 Leave Link  401 at Thu Jan 30 14:23:17 2025, MaxMem=   104857600 cpu:               2.0 elap:               2.0
 (Enter /sw/cluster/pub/apps//g16/l502.exe)
 Two-electron integral symmetry not used.
 UHF open shell SCF:
 Using DIIS extrapolation, IDIIS=  1040.
 NGot=   104857600 LenX=   104735324 LenY=   104675347
 Requested convergence on RMS density matrix=1.00D-08 within 128 cycles.
 Requested convergence on MAX density matrix=1.00D-06.
 Requested convergence on             energy=1.00D-06.
 No special actions if energy rises.
 Fock matrices will be formed incrementally for  20 cycles.

 Cycle   1  Pass 1  IDiag  1:
 FoFJK:  IHMeth= 1 ICntrl=       0 DoSepK=F KAlg= 0 I1Cent=           0 FoldK=F
 IRaf= 930000000 NMat=       1 IRICut=       1 DoRegI=T DoRafI=F ISym2E= 0 IDoP0=0 IntGTp=1.
 FoFCou: FMM=F IPFlag=           0 FMFlag=      100000 FMFlg1=           0
         NFxFlg=           0 DoJE=F BraDBF=F KetDBF=F FulRan=T
         wScrn=  0.000000 ICntrl=         0 IOpCl=  1 I1Cent=           0 NGrid=           0
         NMat0=    1 NMatS0=      1 NMatT0=    0 NMatD0=    1 NMtDS0=    0 NMtDT0=    0
 Symmetry not used in FoFCou.
 E= -628.482135007705    
 DIIS: error= 4.25D-02 at cycle   1 NSaved=   1.
 NSaved= 1 IEnMin= 1 EnMin= -628.482135007705     IErMin= 1 ErrMin= 4.25D-02
 ErrMax= 4.25D-02  0.00D+00 EMaxC= 1.00D-01 BMatC= 9.27D-01 BMatP= 9.27D-01
 IDIUse=3 WtCom= 5.75D-01 WtEn= 4.25D-01
 Coeff-Com:  0.100D+01
 Coeff-En:   0.100D+01
 Coeff:      0.100D+01
 Gap=     0.058 Goal=   None    Shift=    0.000
 Gap=     0.309 Goal=   None    Shift=    0.000
 GapD=    0.058 DampG=0.500 DampE=0.500 DampFc=0.2500 IDamp=-1.
 Damping current iteration by 2.50D-01
 RMSDP=1.35D+01 MaxDP=1.27D+03              OVMax= 9.98D-01

 Cycle   2  Pass 1  IDiag  1:
 RMSU=  3.32D+00    CP:  3.00D+00
 E= -628.567254454483     Delta-E=       -0.085119446778 Rises=F Damp=T
 DIIS: error= 2.04D-02 at cycle   2 NSaved=   2.
 NSaved= 2 IEnMin= 2 EnMin= -628.567254454483     IErMin= 2 ErrMin= 2.04D-02
 ErrMax= 2.04D-02  0.00D+00 EMaxC= 1.00D-01 BMatC= 2.40D-01 BMatP= 9.27D-01
 IDIUse=3 WtCom= 7.96D-01 WtEn= 2.04D-01
 Coeff-Com: -0.768D+00 0.177D+01
 Coeff-En:   0.000D+00 0.100D+01
 Coeff:     -0.611D+00 0.161D+01
 Gap=     0.010 Goal=   None    Shift=    0.000
 Gap=     0.205 Goal=   None    Shift=    0.000
 RMSDP=6.98D+00 MaxDP=6.87D+02 DE=-8.51D-02 OVMax= 1.55D-01

 Cycle   3  Pass 1  IDiag  1:
 RMSU=  5.85D-01    CP:  3.00D+00  3.00D+00
 E= -628.681200853014     Delta-E=       -0.113946398531 Rises=F Damp=F
 DIIS: error= 9.91D-03 at cycle   3 NSaved=   3.
 NSaved= 3 IEnMin= 3 EnMin= -628.681200853014     IErMin= 3 ErrMin= 9.91D-03
 ErrMax= 9.91D-03  0.00D+00 EMaxC= 1.00D-01 BMatC= 5.89D-02 BMatP= 2.40D-01
 IDIUse=3 WtCom= 9.01D-01 WtEn= 9.91D-02
 Coeff-Com: -0.944D-01 0.454D+00 0.640D+00
 Coeff-En:   0.000D+00 0.000D+00 0.100D+01
 Coeff:     -0.850D-01 0.409D+00 0.676D+00
 Gap=     0.020 Goal=   None    Shift=    0.000
 Gap=     0.261 Goal=   None    Shift=    0.000
 RMSDP=1.52D+00 MaxDP=1.76D+02 DE=-1.14D-01 OVMax= 1.51D-01

 Cycle   4  Pass 1  IDiag  1:
 RMSU=  3.53D-01    CP:  3.00D+00  2.66D+00  2.40D-01
 E= -628.694436089076     Delta-E=       -0.013235236062 Rises=F Damp=F
 DIIS: error= 4.37D-03 at cycle   4 NSaved=   4.
 NSaved= 4 IEnMin= 4 EnMin= -628.694436089076     IErMin= 4 ErrMin= 4.37D-03
 ErrMax= 4.37D-03  0.00D+00 EMaxC= 1.00D-01 BMatC= 1.25D-02 BMatP= 5.89D-02
 IDIUse=3 WtCom= 9.56D-01 WtEn= 4.37D-02
 Coeff-Com:  0.143D+00-0.155D+00 0.344D+00 0.668D+00
 Coeff-En:   0.000D+00 0.000D+00 0.000D+00 0.100D+01
 Coeff:      0.136D+00-0.148D+00 0.329D+00 0.683D+00
 Gap=     0.016 Goal=   None    Shift=    0.000
 Gap=     0.249 Goal=   None    Shift=    0.000
 RMSDP=1.20D+00 MaxDP=1.21D+02 DE=-1.32D-02 OVMax= 6.29D-02

 Cycle   5  Pass 1  IDiag  1:
 RMSU=  8.02D-02    CP:  3.00D+00  2.30D+00  9.88D-02  1.17D+00
 E= -628.696940596029     Delta-E=       -0.002504506952 Rises=F Damp=F
 DIIS: error= 1.36D-03 at cycle   5 NSaved=   5.
 NSaved= 5 IEnMin= 5 EnMin= -628.696940596029     IErMin= 5 ErrMin= 1.36D-03
 ErrMax= 1.36D-03  0.00D+00 EMaxC= 1.00D-01 BMatC= 8.88D-04 BMatP= 1.25D-02
 IDIUse=3 WtCom= 9.86D-01 WtEn= 1.36D-02
 Coeff-Com:  0.293D-01-0.330D-01 0.676D-01 0.241D+00 0.695D+00
 Coeff-En:   0.000D+00 0.000D+00 0.000D+00 0.000D+00 0.100D+01
 Coeff:      0.289D-01-0.326D-01 0.667D-01 0.238D+00 0.699D+00
 Gap=     0.025 Goal=   None    Shift=    0.000
 Gap=     0.247 Goal=   None    Shift=    0.000
 RMSDP=2.98D-01 MaxDP=2.80D+01 DE=-2.50D-03 OVMax= 1.59D-02

 Cycle   6  Pass 1  IDiag  1:
 RMSU=  1.46D-02    CP:  3.00D+00  2.21D+00  9.13D-02  1.22D+00  1.15D+00
 E= -628.697146329947     Delta-E=       -0.000205733918 Rises=F Damp=F
 DIIS: error= 8.52D-04 at cycle   6 NSaved=   6.
 NSaved= 6 IEnMin= 6 EnMin= -628.697146329947     IErMin= 6 ErrMin= 8.52D-04
 ErrMax= 8.52D-04  0.00D+00 EMaxC= 1.00D-01 BMatC= 2.60D-04 BMatP= 8.88D-04
 IDIUse=3 WtCom= 9.91D-01 WtEn= 8.52D-03
 Coeff-Com: -0.112D-01 0.179D-01-0.737D-02 0.203D-01 0.363D+00 0.617D+00
 Coeff-En:   0.000D+00 0.000D+00 0.000D+00 0.000D+00 0.318D-01 0.968D+00
 Coeff:     -0.111D-01 0.178D-01-0.731D-02 0.201D-01 0.360D+00 0.620D+00
 Gap=     0.028 Goal=   None    Shift=    0.000
 Gap=     0.247 Goal=   None    Shift=    0.000
 RMSDP=1.36D-01 MaxDP=1.15D+01 DE=-2.06D-04 OVMax= 6.23D-03

 Cycle   7  Pass 1  IDiag  1:
 RMSU=  4.47D-03    CP:  3.00D+00  2.17D+00  9.74D-02  1.20D+00  1.14D+00
                    CP:  1.52D+00
 E= -628.697236658975     Delta-E=       -0.000090329028 Rises=F Damp=F
 DIIS: error= 4.46D-04 at cycle   7 NSaved=   7.
 NSaved= 7 IEnMin= 7 EnMin= -628.697236658975     IErMin= 7 ErrMin= 4.46D-04
 ErrMax= 4.46D-04  0.00D+00 EMaxC= 1.00D-01 BMatC= 3.87D-05 BMatP= 2.60D-04
 IDIUse=3 WtCom= 9.96D-01 WtEn= 4.46D-03
 Coeff-Com: -0.648D-02 0.800D-02-0.112D-01-0.300D-01 0.226D-02 0.251D+00
 Coeff-Com:  0.786D+00
 Coeff-En:   0.000D+00 0.000D+00 0.000D+00 0.000D+00 0.000D+00 0.000D+00
 Coeff-En:   0.100D+01
 Coeff:     -0.645D-02 0.796D-02-0.112D-01-0.298D-01 0.225D-02 0.250D+00
 Coeff:      0.787D+00
 Gap=     0.026 Goal=   None    Shift=    0.000
 Gap=     0.246 Goal=   None    Shift=    0.000
 RMSDP=1.06D-01 MaxDP=1.05D+01 DE=-9.03D-05 OVMax= 1.09D-02

 Cycle   8  Pass 1  IDiag  1:
 RMSU=  2.45D-03    CP:  3.00D+00  2.14D+00  8.70D-02  1.22D+00  1.23D+00
                    CP:  1.72D+00  9.20D-01
 E= -628.697263306268     Delta-E=       -0.000026647293 Rises=F Damp=F
 DIIS: error= 3.60D-04 at cycle   8 NSaved=   8.
 NSaved= 8 IEnMin= 8 EnMin= -628.697263306268     IErMin= 8 ErrMin= 3.60D-04
 ErrMax= 3.60D-04  0.00D+00 EMaxC= 1.00D-01 BMatC= 1.94D-05 BMatP= 3.87D-05
 IDIUse=3 WtCom= 9.96D-01 WtEn= 3.60D-03
 Coeff-Com: -0.286D-02 0.458D-02-0.503D-02-0.288D-01-0.109D+00-0.217D-01
 Coeff-Com:  0.504D+00 0.659D+00
 Coeff-En:   0.000D+00 0.000D+00 0.000D+00 0.000D+00 0.000D+00 0.000D+00
 Coeff-En:   0.000D+00 0.100D+01
 Coeff:     -0.285D-02 0.456D-02-0.501D-02-0.287D-01-0.109D+00-0.216D-01
 Coeff:      0.502D+00 0.660D+00
 Gap=     0.026 Goal=   None    Shift=    0.000
 Gap=     0.246 Goal=   None    Shift=    0.000
 RMSDP=3.12D-02 MaxDP=2.89D+00 DE=-2.66D-05 OVMax= 3.45D-03

 Cycle   9  Pass 1  IDiag  1:
 RMSU=  3.94D-04    CP:  3.00D+00  2.13D+00  8.50D-02  1.22D+00  1.25D+00
                    CP:  1.81D+00  1.08D+00  1.47D+00
 E= -628.697275758228     Delta-E=       -0.000012451960 Rises=F Damp=F
 DIIS: error= 1.22D-04 at cycle   9 NSaved=   9.
 NSaved= 9 IEnMin= 9 EnMin= -628.697275758228     IErMin= 9 ErrMin= 1.22D-04
 ErrMax= 1.22D-04  0.00D+00 EMaxC= 1.00D-01 BMatC= 2.73D-06 BMatP= 1.94D-05
 IDIUse=3 WtCom= 9.99D-01 WtEn= 1.22D-03
 Coeff-Com:  0.636D-03-0.386D-03 0.851D-03-0.231D-02-0.374D-01-0.850D-01
 Coeff-Com: -0.596D-01 0.202D+00 0.982D+00
 Coeff-En:   0.000D+00 0.000D+00 0.000D+00 0.000D+00 0.000D+00 0.000D+00
 Coeff-En:   0.000D+00 0.000D+00 0.100D+01
 Coeff:      0.635D-03-0.385D-03 0.850D-03-0.231D-02-0.374D-01-0.849D-01
 Coeff:     -0.596D-01 0.201D+00 0.982D+00
 Gap=     0.026 Goal=   None    Shift=    0.000
 Gap=     0.246 Goal=   None    Shift=    0.000
 RMSDP=4.77D-03 MaxDP=3.10D-01 DE=-1.25D-05 OVMax= 3.66D-03

 Cycle  10  Pass 1  IDiag  1:
 RMSU=  6.38D-04    CP:  3.00D+00  2.13D+00  8.19D-02  1.23D+00  1.27D+00
                    CP:  1.83D+00  1.21D+00  2.19D+00  2.21D+00
 E= -628.697280398054     Delta-E=       -0.000004639826 Rises=F Damp=F
 DIIS: error= 5.68D-05 at cycle  10 NSaved=  10.
 NSaved=10 IEnMin=10 EnMin= -628.697280398054     IErMin=10 ErrMin= 5.68D-05
 ErrMax= 5.68D-05  0.00D+00 EMaxC= 1.00D-01 BMatC= 7.35D-07 BMatP= 2.73D-06
 IDIUse=1 WtCom= 1.00D+00 WtEn= 0.00D+00
 Coeff-Com:  0.534D-03-0.967D-03 0.690D-03 0.589D-02 0.223D-01-0.164D-02
 Coeff-Com: -0.119D+00-0.148D+00 0.739D-01 0.117D+01
 Coeff:      0.534D-03-0.967D-03 0.690D-03 0.589D-02 0.223D-01-0.164D-02
 Coeff:     -0.119D+00-0.148D+00 0.739D-01 0.117D+01
 Gap=     0.026 Goal=   None    Shift=    0.000
 Gap=     0.246 Goal=   None    Shift=    0.000
 RMSDP=1.57D-02 MaxDP=1.49D+00 DE=-4.64D-06 OVMax= 1.30D-03

 Cycle  11  Pass 1  IDiag  1:
 RMSU=  2.64D-04    CP:  3.00D+00  2.13D+00  8.07D-02  1.23D+00  1.28D+00
                    CP:  1.81D+00  1.31D+00  2.59D+00  3.00D+00  1.79D+00
 E= -628.697281940624     Delta-E=       -0.000001542570 Rises=F Damp=F
 DIIS: error= 4.33D-05 at cycle  11 NSaved=  11.
 NSaved=11 IEnMin=11 EnMin= -628.697281940624     IErMin=11 ErrMin= 4.33D-05
 ErrMax= 4.33D-05  0.00D+00 EMaxC= 1.00D-01 BMatC= 4.47D-07 BMatP= 7.35D-07
 IDIUse=1 WtCom= 1.00D+00 WtEn= 0.00D+00
 Coeff-Com:  0.113D-05-0.278D-03 0.246D-03 0.456D-02 0.269D-01 0.294D-01
 Coeff-Com: -0.550D-01-0.155D+00-0.294D+00 0.712D+00 0.731D+00
 Coeff:      0.113D-05-0.278D-03 0.246D-03 0.456D-02 0.269D-01 0.294D-01
 Coeff:     -0.550D-01-0.155D+00-0.294D+00 0.712D+00 0.731D+00
 Gap=     0.026 Goal=   None    Shift=    0.000
 Gap=     0.246 Goal=   None    Shift=    0.000
 RMSDP=1.11D-02 MaxDP=1.09D+00 DE=-1.54D-06 OVMax= 6.87D-04

 Cycle  12  Pass 1  IDiag  1:
 RMSU=  1.31D-04    CP:  3.00D+00  2.14D+00  8.04D-02  1.23D+00  1.28D+00
                    CP:  1.79D+00  1.35D+00  2.75D+00  3.00D+00  2.43D+00
                    CP:  1.26D+00
 E= -628.697282396315     Delta-E=       -0.000000455691 Rises=F Damp=F
 DIIS: error= 1.75D-05 at cycle  12 NSaved=  12.
 NSaved=12 IEnMin=12 EnMin= -628.697282396315     IErMin=12 ErrMin= 1.75D-05
 ErrMax= 1.75D-05  0.00D+00 EMaxC= 1.00D-01 BMatC= 6.99D-08 BMatP= 4.47D-07
 IDIUse=1 WtCom= 1.00D+00 WtEn= 0.00D+00
 Coeff-Com: -0.252D-03 0.397D-03-0.110D-03-0.122D-02-0.331D-02 0.737D-02
 Coeff-Com:  0.363D-01 0.392D-01-0.110D+00-0.324D+00 0.162D+00 0.119D+01
 Coeff:     -0.252D-03 0.397D-03-0.110D-03-0.122D-02-0.331D-02 0.737D-02
 Coeff:      0.363D-01 0.392D-01-0.110D+00-0.324D+00 0.162D+00 0.119D+01
 Gap=     0.026 Goal=   None    Shift=    0.000
 Gap=     0.246 Goal=   None    Shift=    0.000
 RMSDP=5.93D-03 MaxDP=5.67D-01 DE=-4.56D-07 OVMax= 4.85D-04

 Cycle  13  Pass 1  IDiag  1:
 RMSU=  5.28D-05    CP:  3.00D+00  2.14D+00  8.05D-02  1.23D+00  1.28D+00
                    CP:  1.78D+00  1.36D+00  2.74D+00  3.00D+00  2.47D+00
                    CP:  2.00D+00  9.18D-01
 E= -628.697282525276     Delta-E=       -0.000000128961 Rises=F Damp=F
 DIIS: error= 4.44D-06 at cycle  13 NSaved=  13.
 NSaved=13 IEnMin=13 EnMin= -628.697282525276     IErMin=13 ErrMin= 4.44D-06
 ErrMax= 4.44D-06  0.00D+00 EMaxC= 1.00D-01 BMatC= 1.08D-08 BMatP= 6.99D-08
 IDIUse=1 WtCom= 1.00D+00 WtEn= 0.00D+00
 Coeff-Com: -0.489D-04 0.658D-04-0.194D-03-0.924D-03-0.323D-02-0.389D-03
 Coeff-Com:  0.174D-01 0.270D-01-0.102D-01-0.180D+00-0.204D-01 0.420D+00
 Coeff-Com:  0.751D+00
 Coeff:     -0.489D-04 0.658D-04-0.194D-03-0.924D-03-0.323D-02-0.389D-03
 Coeff:      0.174D-01 0.270D-01-0.102D-01-0.180D+00-0.204D-01 0.420D+00
 Coeff:      0.751D+00
 Gap=     0.026 Goal=   None    Shift=    0.000
 Gap=     0.246 Goal=   None    Shift=    0.000
 RMSDP=1.94D-03 MaxDP=1.90D-01 DE=-1.29D-07 OVMax= 1.67D-04

 Cycle  14  Pass 1  IDiag  1:
 RMSU=  5.60D-05    CP:  3.00D+00  2.14D+00  8.05D-02  1.23D+00  1.28D+00
                    CP:  1.78D+00  1.34D+00  2.70D+00  3.00D+00  2.54D+00
                    CP:  1.17D+00  1.15D+00  8.22D-01
 E= -628.697282533801     Delta-E=       -0.000000008525 Rises=F Damp=F
 DIIS: error= 2.57D-06 at cycle  14 NSaved=  14.
 NSaved=14 IEnMin=14 EnMin= -628.697282533801     IErMin=14 ErrMin= 2.57D-06
 ErrMax= 2.57D-06  0.00D+00 EMaxC= 1.00D-01 BMatC= 4.15D-09 BMatP= 1.08D-08
 IDIUse=1 WtCom= 1.00D+00 WtEn= 0.00D+00
 Coeff-Com:  0.338D-04-0.580D-04-0.112D-03-0.226D-03-0.904D-03-0.196D-02
 Coeff-Com:  0.136D-02 0.615D-02 0.188D-01-0.263D-01-0.515D-01-0.403D-01
 Coeff-Com:  0.448D+00 0.647D+00
 Coeff:      0.338D-04-0.580D-04-0.112D-03-0.226D-03-0.904D-03-0.196D-02
 Coeff:      0.136D-02 0.615D-02 0.188D-01-0.263D-01-0.515D-01-0.403D-01
 Coeff:      0.448D+00 0.647D+00
 Gap=     0.026 Goal=   None    Shift=    0.000
 Gap=     0.246 Goal=   None    Shift=    0.000
 RMSDP=1.69D-03 MaxDP=1.65D-01 DE=-8.53D-09 OVMax= 1.29D-04

 Cycle  15  Pass 1  IDiag  1:
 RMSU=  9.34D-06    CP:  3.00D+00  2.14D+00  8.06D-02  1.23D+00  1.28D+00
                    CP:  1.78D+00  1.34D+00  2.65D+00  3.00D+00  2.30D+00
                    CP:  1.50D+00  7.59D-01  1.30D+00  5.91D-01
 E= -628.697282536658     Delta-E=       -0.000000002857 Rises=F Damp=F
 DIIS: error= 1.24D-06 at cycle  15 NSaved=  15.
 NSaved=15 IEnMin=15 EnMin= -628.697282536658     IErMin=15 ErrMin= 1.24D-06
 ErrMax= 1.24D-06  0.00D+00 EMaxC= 1.00D-01 BMatC= 7.01D-10 BMatP= 4.15D-09
 IDIUse=1 WtCom= 1.00D+00 WtEn= 0.00D+00
 Coeff-Com:  0.189D-04-0.319D-04-0.457D-04 0.140D-04-0.959D-05-0.942D-03
 Coeff-Com: -0.177D-02 0.156D-03 0.106D-01 0.116D-01-0.245D-01-0.833D-01
 Coeff-Com:  0.148D+00 0.344D+00 0.597D+00
 Coeff:      0.189D-04-0.319D-04-0.457D-04 0.140D-04-0.959D-05-0.942D-03
 Coeff:     -0.177D-02 0.156D-03 0.106D-01 0.116D-01-0.245D-01-0.833D-01
 Coeff:      0.148D+00 0.344D+00 0.597D+00
 Gap=     0.026 Goal=   None    Shift=    0.000
 Gap=     0.246 Goal=   None    Shift=    0.000
 RMSDP=8.23D-04 MaxDP=8.06D-02 DE=-2.86D-09 OVMax= 6.70D-05

 Cycle  16  Pass 1  IDiag  1:
 RMSU=  2.50D-06    CP:  3.00D+00  2.14D+00  8.07D-02  1.23D+00  1.28D+00
                    CP:  1.78D+00  1.33D+00  2.63D+00  3.00D+00  2.30D+00
                    CP:  1.17D+00  8.17D-01  1.19D+00  8.77D-01  1.19D+00
 E= -628.697282537279     Delta-E=       -0.000000000620 Rises=F Damp=F
 DIIS: error= 8.35D-07 at cycle  16 NSaved=  16.
 NSaved=16 IEnMin=16 EnMin= -628.697282537279     IErMin=16 ErrMin= 8.35D-07
 ErrMax= 8.35D-07  0.00D+00 EMaxC= 1.00D-01 BMatC= 2.04D-10 BMatP= 7.01D-10
 IDIUse=1 WtCom= 1.00D+00 WtEn= 0.00D+00
 Coeff-Com: -0.244D-05 0.427D-06 0.206D-05 0.104D-03 0.392D-03 0.157D-03
 Coeff-Com: -0.197D-02-0.197D-02-0.862D-03 0.202D-01 0.381D-02-0.470D-01
 Coeff-Com: -0.703D-01-0.286D-01 0.352D+00 0.774D+00
 Coeff:     -0.244D-05 0.427D-06 0.206D-05 0.104D-03 0.392D-03 0.157D-03
 Coeff:     -0.197D-02-0.197D-02-0.862D-03 0.202D-01 0.381D-02-0.470D-01
 Coeff:     -0.703D-01-0.286D-01 0.352D+00 0.774D+00
 Gap=     0.026 Goal=   None    Shift=    0.000
 Gap=     0.246 Goal=   None    Shift=    0.000
 RMSDP=8.10D-04 MaxDP=7.94D-02 DE=-6.20D-10 OVMax= 6.30D-05

 Cycle  17  Pass 1  IDiag  1:
 RMSU=  6.05D-07    CP:  3.00D+00  2.14D+00  8.07D-02  1.23D+00  1.28D+00
                    CP:  1.78D+00  1.32D+00  2.61D+00  3.00D+00  2.21D+00
                    CP:  1.16D+00  7.10D-01  1.26D+00  7.88D-01  1.68D+00
                    CP:  1.79D+00
 E= -628.697282537420     Delta-E=       -0.000000000141 Rises=F Damp=F
 DIIS: error= 1.86D-07 at cycle  17 NSaved=  17.
 NSaved=17 IEnMin=17 EnMin= -628.697282537420     IErMin=17 ErrMin= 1.86D-07
 ErrMax= 1.86D-07  0.00D+00 EMaxC= 1.00D-01 BMatC= 1.51D-11 BMatP= 2.04D-10
 IDIUse=1 WtCom= 1.00D+00 WtEn= 0.00D+00
 Coeff-Com: -0.663D-06 0.686D-07 0.326D-05-0.614D-05 0.212D-04 0.141D-03
 Coeff-Com:  0.331D-03 0.325D-03-0.251D-02-0.231D-02 0.376D-02 0.160D-01
 Coeff-Com: -0.156D-01-0.556D-01-0.147D+00-0.614D-01 0.126D+01
 Coeff:     -0.663D-06 0.686D-07 0.326D-05-0.614D-05 0.212D-04 0.141D-03
 Coeff:      0.331D-03 0.325D-03-0.251D-02-0.231D-02 0.376D-02 0.160D-01
 Coeff:     -0.156D-01-0.556D-01-0.147D+00-0.614D-01 0.126D+01
 Gap=     0.026 Goal=   None    Shift=    0.000
 Gap=     0.246 Goal=   None    Shift=    0.000
 RMSDP=4.21D-04 MaxDP=4.11D-02 DE=-1.41D-10 OVMax= 3.77D-05

 Cycle  18  Pass 1  IDiag  1:
 RMSU=  5.11D-07    CP:  3.00D+00  2.14D+00  8.08D-02  1.23D+00  1.28D+00
                    CP:  1.78D+00  1.32D+00  2.60D+00  3.00D+00  2.18D+00
                    CP:  1.10D+00  6.86D-01  1.25D+00  7.56D-01  2.02D+00
                    CP:  2.59D+00  2.57D+00
 E= -628.697282537667     Delta-E=       -0.000000000247 Rises=F Damp=F
 DIIS: error= 7.21D-08 at cycle  18 NSaved=  18.
 NSaved=18 IEnMin=18 EnMin= -628.697282537667     IErMin=18 ErrMin= 7.21D-08
 ErrMax= 7.21D-08  0.00D+00 EMaxC= 1.00D-01 BMatC= 2.93D-12 BMatP= 1.51D-11
 IDIUse=1 WtCom= 1.00D+00 WtEn= 0.00D+00
 Coeff-Com:  0.863D-06-0.190D-05-0.497D-06-0.949D-05-0.163D-04 0.305D-04
 Coeff-Com:  0.253D-03 0.289D-03-0.838D-03-0.227D-02 0.745D-03 0.910D-02
 Coeff-Com:  0.161D-02-0.155D-01-0.848D-01-0.943D-01 0.500D+00 0.686D+00
 Coeff:      0.863D-06-0.190D-05-0.497D-06-0.949D-05-0.163D-04 0.305D-04
 Coeff:      0.253D-03 0.289D-03-0.838D-03-0.227D-02 0.745D-03 0.910D-02
 Coeff:      0.161D-02-0.155D-01-0.848D-01-0.943D-01 0.500D+00 0.686D+00
 Gap=     0.026 Goal=   None    Shift=    0.000
 Gap=     0.246 Goal=   None    Shift=    0.000
 RMSDP=4.54D-05 MaxDP=4.43D-03 DE=-2.47D-10 OVMax= 6.11D-06

 Cycle  19  Pass 1  IDiag  1:
 RMSU=  9.29D-08    CP:  3.00D+00  2.14D+00  8.08D-02  1.23D+00  1.28D+00
                    CP:  1.78D+00  1.32D+00  2.60D+00  3.00D+00  2.18D+00
                    CP:  1.09D+00  6.83D-01  1.25D+00  7.44D-01  2.08D+00
                    CP:  2.74D+00  3.00D+00  1.46D+00
 E= -628.697282537705     Delta-E=       -0.000000000038 Rises=F Damp=F
 DIIS: error= 4.35D-08 at cycle  19 NSaved=  19.
 NSaved=19 IEnMin=19 EnMin= -628.697282537705     IErMin=19 ErrMin= 4.35D-08
 ErrMax= 4.35D-08  0.00D+00 EMaxC= 1.00D-01 BMatC= 9.85D-13 BMatP= 2.93D-12
 IDIUse=1 WtCom= 1.00D+00 WtEn= 0.00D+00
 Coeff-Com:  0.554D-06-0.826D-06-0.160D-05-0.455D-05-0.232D-04-0.231D-04
 Coeff-Com:  0.845D-04 0.133D-03 0.207D-03-0.893D-03-0.660D-03 0.111D-02
 Coeff-Com:  0.538D-02 0.789D-02-0.378D-02-0.389D-01-0.122D+00 0.403D+00
 Coeff-Com:  0.749D+00
 Coeff:      0.554D-06-0.826D-06-0.160D-05-0.455D-05-0.232D-04-0.231D-04
 Coeff:      0.845D-04 0.133D-03 0.207D-03-0.893D-03-0.660D-03 0.111D-02
 Coeff:      0.538D-02 0.789D-02-0.378D-02-0.389D-01-0.122D+00 0.403D+00
 Coeff:      0.749D+00
 Gap=     0.026 Goal=   None    Shift=    0.000
 Gap=     0.246 Goal=   None    Shift=    0.000
 RMSDP=2.15D-05 MaxDP=2.12D-03 DE=-3.77D-11 OVMax= 4.34D-06

 Cycle  20  Pass 1  IDiag  1:
 RMSU=  1.99D-07    CP:  3.00D+00  2.14D+00  8.08D-02  1.23D+00  1.28D+00
                    CP:  1.78D+00  1.32D+00  2.60D+00  3.00D+00  2.17D+00
                    CP:  1.09D+00  6.83D-01  1.24D+00  7.38D-01  2.12D+00
                    CP:  2.86D+00  3.00D+00  1.90D+00  2.44D+00
 E= -628.697282537678     Delta-E=        0.000000000027 Rises=F Damp=F
 DIIS: error= 9.07D-09 at cycle  20 NSaved=  20.
 NSaved=20 IEnMin=19 EnMin= -628.697282537705     IErMin=20 ErrMin= 9.07D-09
 ErrMax= 9.07D-09  0.00D+00 EMaxC= 1.00D-01 BMatC= 1.82D-14 BMatP= 9.85D-13
 IDIUse=1 WtCom= 1.00D+00 WtEn= 0.00D+00
 Coeff-Com: -0.102D-06 0.166D-06-0.199D-06 0.107D-05 0.309D-05-0.151D-05
 Coeff-Com: -0.265D-04-0.188D-04 0.553D-04 0.218D-03-0.161D-04-0.901D-03
 Coeff-Com: -0.758D-04 0.137D-02 0.636D-02 0.792D-02-0.330D-01-0.697D-01
 Coeff-Com: -0.662D-01 0.115D+01
 Coeff:     -0.102D-06 0.166D-06-0.199D-06 0.107D-05 0.309D-05-0.151D-05
 Coeff:     -0.265D-04-0.188D-04 0.553D-04 0.218D-03-0.161D-04-0.901D-03
 Coeff:     -0.758D-04 0.137D-02 0.636D-02 0.792D-02-0.330D-01-0.697D-01
 Coeff:     -0.662D-01 0.115D+01
 Gap=     0.026 Goal=   None    Shift=    0.000
 Gap=     0.246 Goal=   None    Shift=    0.000
 RMSDP=2.10D-06 MaxDP=1.54D-04 DE= 2.68D-11 OVMax= 1.04D-06

 Cycle  21  Pass 1  IDiag  1:
 Restarting incremental Fock formation.
 E= -628.697282537529     Delta-E=        0.000000000149 Rises=F Damp=F
 DIIS: error= 1.53D-09 at cycle  21 NSaved=  20.
 NSaved=20 IEnMin=18 EnMin= -628.697282537705     IErMin=20 ErrMin= 1.53D-09
 ErrMax= 1.53D-09  0.00D+00 EMaxC= 1.00D-01 BMatC= 1.13D-15 BMatP= 1.82D-14
 IDIUse=1 WtCom= 1.00D+00 WtEn= 0.00D+00
 Large coefficients: NSaved= 20 BigCof=    0.00 CofMax=   10.00 Det=-2.85D-15
 Inversion failed.  Reducing to 19 matrices.
 Large coefficients: NSaved= 19 BigCof=    0.00 CofMax=   10.00 Det=-2.86D-15
 Inversion failed.  Reducing to 18 matrices.
 Large coefficients: NSaved= 18 BigCof=    0.00 CofMax=   10.00 Det=-2.94D-15
 Inversion failed.  Reducing to 17 matrices.
 Large coefficients: NSaved= 17 BigCof=    0.00 CofMax=   10.00 Det=-5.26D-15
 Inversion failed.  Reducing to 16 matrices.
 Large coefficients: NSaved= 16 BigCof=    0.00 CofMax=   10.00 Det=-6.43D-15
 Inversion failed.  Reducing to 15 matrices.
 Coeff-Com: -0.137D-05 0.142D-05-0.179D-05 0.159D-04 0.103D-04-0.518D-04
 Coeff-Com: -0.118D-03-0.120D-03 0.488D-03 0.947D-03 0.106D-02-0.165D-01
 Coeff-Com: -0.238D-01 0.362D-01 0.100D+01
 Coeff:     -0.137D-05 0.142D-05-0.179D-05 0.159D-04 0.103D-04-0.518D-04
 Coeff:     -0.118D-03-0.120D-03 0.488D-03 0.947D-03 0.106D-02-0.165D-01
 Coeff:     -0.238D-01 0.362D-01 0.100D+01
 Gap=     0.026 Goal=   None    Shift=    0.000
 Gap=     0.246 Goal=   None    Shift=    0.000
 RMSDP=1.93D-06 MaxDP=1.46D-04 DE= 1.49D-10 OVMax= 1.53D-07

 Cycle  22  Pass 1  IDiag  1:
 RMSU=  1.02D-06    CP:  1.00D+00
 E= -628.697282537555     Delta-E=       -0.000000000027 Rises=F Damp=F
 DIIS: error= 7.37D-10 at cycle  22 NSaved=  16.
 NSaved=16 IEnMin=13 EnMin= -628.697282537705     IErMin=16 ErrMin= 7.37D-10
 ErrMax= 7.37D-10  0.00D+00 EMaxC= 1.00D-01 BMatC= 1.74D-16 BMatP= 1.13D-15
 IDIUse=1 WtCom= 1.00D+00 WtEn= 0.00D+00
 Large coefficients: NSaved= 16 BigCof=    0.00 CofMax=   10.00 Det=-6.44D-16
 Inversion failed.  Reducing to 15 matrices.
 Coeff-Com: -0.857D-06-0.131D-05 0.144D-05-0.109D-05 0.183D-04-0.216D-04
 Coeff-Com: -0.519D-04-0.237D-03-0.988D-04 0.239D-02 0.103D-02 0.922D-03
 Coeff-Com: -0.839D-01 0.160D+00 0.920D+00
 Coeff:     -0.857D-06-0.131D-05 0.144D-05-0.109D-05 0.183D-04-0.216D-04
 Coeff:     -0.519D-04-0.237D-03-0.988D-04 0.239D-02 0.103D-02 0.922D-03
 Coeff:     -0.839D-01 0.160D+00 0.920D+00
 Gap=     0.026 Goal=   None    Shift=    0.000
 Gap=     0.246 Goal=   None    Shift=    0.000
 RMSDP=9.39D-07 MaxDP=6.21D-05 DE=-2.68D-11 OVMax= 5.01D-08

 Cycle  23  Pass 1  IDiag  1:
 RMSU=  1.08D-07    CP:  1.00D+00  1.28D+00
 E= -628.697282537529     Delta-E=        0.000000000027 Rises=F Damp=F
 DIIS: error= 1.89D-10 at cycle  23 NSaved=  16.
 NSaved=16 IEnMin=12 EnMin= -628.697282537705     IErMin=16 ErrMin= 1.89D-10
 ErrMax= 1.89D-10  0.00D+00 EMaxC= 1.00D-01 BMatC= 2.17D-17 BMatP= 1.74D-16
 IDIUse=1 WtCom= 1.00D+00 WtEn= 0.00D+00
 Large coefficients: NSaved= 16 BigCof=    0.00 CofMax=   10.00 Det=-7.74D-17
 Inversion failed.  Reducing to 15 matrices.
 Coeff-Com:  0.152D-06-0.131D-05-0.853D-06 0.558D-05 0.911D-05-0.800D-05
 Coeff-Com: -0.595D-04-0.926D-04 0.316D-03 0.145D-02 0.155D-02-0.130D-01
 Coeff-Com: -0.620D-01 0.173D+00 0.898D+00
 Coeff:      0.152D-06-0.131D-05-0.853D-06 0.558D-05 0.911D-05-0.800D-05
 Coeff:     -0.595D-04-0.926D-04 0.316D-03 0.145D-02 0.155D-02-0.130D-01
 Coeff:     -0.620D-01 0.173D+00 0.898D+00
 Gap=     0.026 Goal=   None    Shift=    0.000
 Gap=     0.246 Goal=   None    Shift=    0.000
 RMSDP=6.10D-08 MaxDP=4.01D-06 DE= 2.68D-11 OVMax= 4.87D-08

 Cycle  24  Pass 1  IDiag  1:
 RMSU=  1.97D-08    CP:  1.00D+00  1.30D+00  1.02D+00
 E= -628.697282537483     Delta-E=        0.000000000046 Rises=F Damp=F
 DIIS: error= 1.88D-10 at cycle  24 NSaved=  16.
 NSaved=16 IEnMin=11 EnMin= -628.697282537705     IErMin=16 ErrMin= 1.88D-10
 ErrMax= 1.88D-10  0.00D+00 EMaxC= 1.00D-01 BMatC= 1.01D-17 BMatP= 2.17D-17
 IDIUse=1 WtCom= 1.00D+00 WtEn= 0.00D+00
 Large coefficients: NSaved= 16 BigCof=    0.00 CofMax=   10.00 Det=-8.00D-18
 Inversion failed.  Reducing to 15 matrices.
 Coeff-Com: -0.451D-06-0.306D-06 0.171D-05 0.467D-05-0.605D-06-0.239D-04
 Coeff-Com: -0.383D-04 0.240D-04 0.665D-03 0.679D-03-0.388D-02-0.293D-01
 Coeff-Com:  0.480D-01 0.339D+00 0.645D+00
 Coeff:     -0.451D-06-0.306D-06 0.171D-05 0.467D-05-0.605D-06-0.239D-04
 Coeff:     -0.383D-04 0.240D-04 0.665D-03 0.679D-03-0.388D-02-0.293D-01
 Coeff:      0.480D-01 0.339D+00 0.645D+00
 Gap=     0.026 Goal=   None    Shift=    0.000
 Gap=     0.246 Goal=   None    Shift=    0.000
 RMSDP=3.88D-08 MaxDP=2.90D-06 DE= 4.57D-11 OVMax= 3.73D-08

 Cycle  25  Pass 1  IDiag  1:
 RMSU=  1.07D-08    CP:  1.00D+00  1.30D+00  1.06D+00  1.25D+00
 E= -628.697282537543     Delta-E=       -0.000000000060 Rises=F Damp=F
 DIIS: error= 2.04D-10 at cycle  25 NSaved=  16.
 NSaved=16 IEnMin=10 EnMin= -628.697282537705     IErMin=15 ErrMin= 1.88D-10
 ErrMax= 2.04D-10  0.00D+00 EMaxC= 1.00D-01 BMatC= 1.01D-17 BMatP= 1.01D-17
 IDIUse=1 WtCom= 1.00D+00 WtEn= 0.00D+00
 Large coefficients: NSaved= 16 BigCof=    0.00 CofMax=   10.00 Det=-1.95D-18
 Inversion failed.  Reducing to 15 matrices.
 Coeff-Com: -0.307D-06 0.324D-06 0.348D-05-0.465D-06-0.163D-04-0.250D-04
 Coeff-Com:  0.123D-04 0.551D-03 0.526D-03-0.312D-02-0.260D-01 0.405D-01
 Coeff-Com:  0.317D+00 0.642D+00 0.286D-01
 Coeff:     -0.307D-06 0.324D-06 0.348D-05-0.465D-06-0.163D-04-0.250D-04
 Coeff:      0.123D-04 0.551D-03 0.526D-03-0.312D-02-0.260D-01 0.405D-01
 Coeff:      0.317D+00 0.642D+00 0.286D-01
 Gap=     0.026 Goal=   None    Shift=    0.000
 Gap=     0.246 Goal=   None    Shift=    0.000
 RMSDP=2.24D-09 MaxDP=1.52D-07 DE=-6.05D-11 OVMax= 2.63D-09

 SCF Done:  E(UPBE1PBE) =  -628.697282538     A.U. after   25 cycles
            NFock= 25  Conv=0.22D-08     -V/T= 2.0026
 <Sx>= 0.0000 <Sy>= 0.0000 <Sz>= 0.5000 <S**2>= 0.7500 S= 0.5000
 <L.S>=  0.00000000000    
 KE= 6.270911027319D+02 PE=-2.537195820704D+03 EE= 7.601314548290D+02
 Annihilation of the first spin contaminant:
 S**2 before annihilation     0.7500,   after     0.7500
 Leave Link  502 at Thu Jan 30 14:25:19 2025, MaxMem=   104857600 cpu:             122.2 elap:             122.6
 (Enter /sw/cluster/pub/apps//g16/l601.exe)
 Copying SCF densities to generalized density rwf, IOpCl= 1 IROHF=0.

 **********************************************************************

            Population analysis using the SCF density.

 **********************************************************************

 Alpha  occ. eigenvalues --  -24.70421 -24.69973 -24.69969 -24.68523 -10.23441
 Alpha  occ. eigenvalues --  -10.23439 -10.22763 -10.22656 -10.14410 -10.14409
 Alpha  occ. eigenvalues --   -1.19867  -1.18676  -1.17892  -1.17081  -0.81909
 Alpha  occ. eigenvalues --   -0.70341  -0.69688  -0.58529  -0.57229  -0.51269
 Alpha  occ. eigenvalues --   -0.49101  -0.48722  -0.44527  -0.43439  -0.43432
 Alpha  occ. eigenvalues --   -0.40201  -0.39479  -0.39440  -0.38496  -0.36979
 Alpha  occ. eigenvalues --   -0.35674  -0.32655  -0.30116  -0.29530  -0.27125
 Alpha  occ. eigenvalues --   -0.17742  -0.16423   0.05173
 Alpha virt. eigenvalues --    0.07802   0.08110   0.09330   0.09481   0.13066
 Alpha virt. eigenvalues --    0.13461   0.14634   0.15430   0.17458   0.18117
 Alpha virt. eigenvalues --    0.18269   0.19006   0.20162   0.21121   0.21643
 Alpha virt. eigenvalues --    0.22029   0.22148   0.22821   0.22883   0.23457
 Alpha virt. eigenvalues --    0.23877   0.24089   0.26685   0.27472   0.27660
 Alpha virt. eigenvalues --    0.28335   0.28594   0.28835   0.31719   0.33046
 Alpha virt. eigenvalues --    0.34175   0.36331   0.36810   0.37215   0.39271
 Alpha virt. eigenvalues --    0.40157   0.42433   0.43164   0.44042   0.44734
 Alpha virt. eigenvalues --    0.44735   0.45184   0.47296   0.48260   0.49029
 Alpha virt. eigenvalues --    0.49659   0.50310   0.51060   0.53197   0.53634
 Alpha virt. eigenvalues --    0.54760   0.55530   0.60461   0.60908   0.61134
 Alpha virt. eigenvalues --    0.62467   0.66805   0.67372   0.67597   0.67833
 Alpha virt. eigenvalues --    0.68767   0.72032   0.73621   0.76150   0.79638
 Alpha virt. eigenvalues --    0.80979   0.82557   0.83142   0.86544   0.90477
 Alpha virt. eigenvalues --    0.92582   0.94846   0.95189   1.01569   1.01897
 Alpha virt. eigenvalues --    1.03974   1.06079   1.06441   1.08444   1.12244
 Alpha virt. eigenvalues --    1.13386   1.14580   1.17418   1.18023   1.24564
 Alpha virt. eigenvalues --    1.28780   1.30556   1.35720   1.43046   1.49152
 Alpha virt. eigenvalues --    1.52317   1.52880   1.53668   1.54539   1.54927
 Alpha virt. eigenvalues --    1.55665   1.56096   1.58156   1.64065   1.64764
 Alpha virt. eigenvalues --    1.64788   1.65111   1.66190   1.69004   1.70177
 Alpha virt. eigenvalues --    1.70439   1.71310   1.77575   1.87024   1.89651
 Alpha virt. eigenvalues --    1.92470   1.94490   1.98208   1.98988   2.04654
 Alpha virt. eigenvalues --    2.04713   2.06755   2.08621   2.15891   2.16758
 Alpha virt. eigenvalues --    2.18341   2.20679   2.20844   2.26093   2.28359
 Alpha virt. eigenvalues --    2.35497   2.39779   2.39819   2.47791   2.64106
 Alpha virt. eigenvalues --    2.65021   2.71435   2.79076   2.83096   2.83799
 Alpha virt. eigenvalues --    2.84993   2.85336   2.87978   2.96309   2.98328
 Alpha virt. eigenvalues --    3.18594   3.21571   3.25110   3.25726   3.31070
 Alpha virt. eigenvalues --    3.35856   3.47652   3.52289   3.74463   3.74682
 Alpha virt. eigenvalues --    3.85772   3.87621   3.88980   3.89797   3.90218
 Alpha virt. eigenvalues --    3.90403   3.95148   3.97727   3.98945   4.06573
 Alpha virt. eigenvalues --    4.10670   4.11363   4.11657   4.14374   4.14957
 Alpha virt. eigenvalues --    4.24737   4.26420   4.26913   4.33959   4.87255
 Alpha virt. eigenvalues --    4.96963   5.00268   5.00645   5.09248   6.42252
 Alpha virt. eigenvalues --    6.46065   6.47181   6.49512   6.52082   6.58635
 Alpha virt. eigenvalues --    6.59500   6.65636   6.75371   6.93228   6.94225
 Alpha virt. eigenvalues --    7.01352  23.65260  24.05868  24.08109  24.21973
 Alpha virt. eigenvalues --   24.28795  24.37488  67.01081  67.04864  67.05966
 Alpha virt. eigenvalues --   67.08346
  Beta  occ. eigenvalues --  -24.70412 -24.69960 -24.69956 -24.68517 -10.23438
  Beta  occ. eigenvalues --  -10.23435 -10.22763 -10.22647 -10.14383 -10.14382
  Beta  occ. eigenvalues --   -1.19837  -1.18637  -1.17859  -1.17063  -0.81867
  Beta  occ. eigenvalues --   -0.70304  -0.69645  -0.58483  -0.57208  -0.51230
  Beta  occ. eigenvalues --   -0.49075  -0.48681  -0.44499  -0.43405  -0.43386
  Beta  occ. eigenvalues --   -0.40164  -0.39406  -0.39374  -0.38474  -0.36919
  Beta  occ. eigenvalues --   -0.35639  -0.32617  -0.30078  -0.29503  -0.27076
  Beta  occ. eigenvalues --   -0.17689  -0.16378
  Beta virt. eigenvalues --    0.08176   0.09151   0.09401   0.10624   0.10710
  Beta virt. eigenvalues --    0.13963   0.14568   0.15375   0.16428   0.18360
  Beta virt. eigenvalues --    0.18607   0.18788   0.19847   0.20648   0.22126
  Beta virt. eigenvalues --    0.22406   0.22671   0.23270   0.23446   0.23535
  Beta virt. eigenvalues --    0.24244   0.24776   0.24917   0.27282   0.27854
  Beta virt. eigenvalues --    0.28494   0.29179   0.29359   0.29368   0.32052
  Beta virt. eigenvalues --    0.34440   0.34546   0.36747   0.37262   0.37551
  Beta virt. eigenvalues --    0.39716   0.40546   0.42904   0.43881   0.44622
  Beta virt. eigenvalues --    0.45258   0.45321   0.45863   0.47826   0.48790
  Beta virt. eigenvalues --    0.49508   0.50402   0.50710   0.51365   0.53763
  Beta virt. eigenvalues --    0.54201   0.55108   0.55816   0.60807   0.61367
  Beta virt. eigenvalues --    0.61431   0.62928   0.67026   0.67692   0.67879
  Beta virt. eigenvalues --    0.68085   0.68959   0.72313   0.73899   0.76237
  Beta virt. eigenvalues --    0.79813   0.81235   0.82620   0.83297   0.86789
  Beta virt. eigenvalues --    0.90705   0.92840   0.95114   0.95429   1.01764
  Beta virt. eigenvalues --    1.02130   1.04141   1.06290   1.06457   1.08641
  Beta virt. eigenvalues --    1.12442   1.13572   1.14642   1.17686   1.18079
  Beta virt. eigenvalues --    1.24629   1.28832   1.30595   1.35936   1.43189
  Beta virt. eigenvalues --    1.49283   1.52434   1.53009   1.53852   1.54690
  Beta virt. eigenvalues --    1.55045   1.55801   1.56255   1.58294   1.64195
  Beta virt. eigenvalues --    1.64832   1.64951   1.65195   1.66267   1.69108
  Beta virt. eigenvalues --    1.70247   1.70512   1.71418   1.77659   1.87104
  Beta virt. eigenvalues --    1.89711   1.92525   1.94560   1.98241   1.99028
  Beta virt. eigenvalues --    2.04737   2.04821   2.06808   2.08721   2.15960
  Beta virt. eigenvalues --    2.16837   2.18440   2.20729   2.20931   2.26176
  Beta virt. eigenvalues --    2.28433   2.35545   2.39810   2.39867   2.47840
  Beta virt. eigenvalues --    2.64188   2.65060   2.71495   2.79142   2.83222
  Beta virt. eigenvalues --    2.83847   2.85050   2.85458   2.88043   2.96350
  Beta virt. eigenvalues --    2.98375   3.18634   3.21599   3.25130   3.25781
  Beta virt. eigenvalues --    3.31112   3.35899   3.47691   3.52324   3.74507
  Beta virt. eigenvalues --    3.74734   3.85800   3.87624   3.88986   3.89801
  Beta virt. eigenvalues --    3.90240   3.90404   3.95156   3.97745   3.98967
  Beta virt. eigenvalues --    4.06585   4.10685   4.11370   4.11671   4.14410
  Beta virt. eigenvalues --    4.14970   4.24776   4.26437   4.26931   4.33976
  Beta virt. eigenvalues --    4.87291   4.96987   5.00306   5.00660   5.09284
  Beta virt. eigenvalues --    6.42275   6.46091   6.47188   6.49542   6.52106
  Beta virt. eigenvalues --    6.58654   6.59497   6.65658   6.75395   6.93237
  Beta virt. eigenvalues --    6.94257   7.01385  23.65273  24.05876  24.08119
  Beta virt. eigenvalues --   24.21982  24.28820  24.37508  67.01095  67.04881
  Beta virt. eigenvalues --   67.05976  67.08359
          Condensed to atoms (all electrons):
               1          2          3          4          5          6
     1  C  694.775371-495.699195 383.868575-292.779300 384.043824-495.701115
     2  C -495.699195 401.738579-331.216029 248.358762-295.053335 359.755406
     3  C  383.868575-331.216029 328.404176-252.514745 262.292126-294.910060
     4  C -292.779300 248.358762-252.514745 243.011384-252.662751 248.356756
     5  C  384.043824-295.053335 262.292126-252.662751 328.706083-331.343598
     6  C -495.701115 359.755406-294.910060 248.356756-331.343598 401.718747
     7  H  -86.669764  67.674206 -58.047394  34.387747 -35.873584  51.708246
     8  H  -86.746594  51.748586 -35.885278  34.423322 -58.120796  67.720893
     9  F   -1.541196   1.285740  -0.954850   0.830048  -1.049409   1.106218
    10  F    2.155880  -2.498529   3.178024  -3.254470   3.180456  -2.498561
    11  F   -1.542791   1.107460  -1.050153   0.831547  -0.957141   1.287269
    12  F   -7.075473   4.595621  -2.870922   1.798251  -2.871840   4.595881
               7          8          9         10         11         12
     1  C  -86.669764 -86.746594  -1.541196   2.155880  -1.542791  -7.075473
     2  C   67.674206  51.748586   1.285740  -2.498529   1.107460   4.595621
     3  C  -58.047394 -35.885278  -0.954850   3.178024  -1.050153  -2.870922
     4  C   34.387747  34.423322   0.830048  -3.254470   0.831547   1.798251
     5  C  -35.873584 -58.120796  -1.049409   3.180456  -0.957141  -2.871840
     6  C   51.708246  67.720893   1.106218  -2.498561   1.287269   4.595881
     7  H   22.611001   6.360524   0.252370  -0.214872   0.079346   0.860005
     8  H    6.360524  22.653320   0.079313  -0.215119   0.252837   0.860497
     9  F    0.252370   0.079313   9.165296  -0.010012   0.002675   0.006254
    10  F   -0.214872  -0.215119  -0.010012   9.350501  -0.010026  -0.001891
    11  F    0.079346   0.252837   0.002675  -0.010026   9.165086   0.006256
    12  F    0.860005   0.860497   0.006254  -0.001891   0.006256   9.280202
          Atomic-Atomic Spin Densities.
               1          2          3          4          5          6
     1  C  684.116945-492.639806 381.564950-290.118771 381.739508-492.636267
     2  C -492.639806 387.870701-329.181004 249.183071-291.969951 359.283987
     3  C  381.564950-329.181004 315.496871-250.372405 264.068890-291.827663
     4  C -290.118771 249.183071-250.372405 228.647121-250.515535 249.181954
     5  C  381.739508-291.969951 264.068890-250.515535 315.790412-329.305340
     6  C -492.636267 359.283987-291.827663 249.181954-329.305340 387.842831
     7  H  -86.515482  67.045212 -57.920560  34.400299 -35.852543  51.734957
     8  H  -86.592107  51.775188 -35.864178  34.435792 -57.993821  67.091703
     9  F   -1.523400   1.520929  -1.542548   1.108216  -1.008892   1.094383
    10  F    2.152129  -2.427581   3.430742  -3.905338   3.433187  -2.427638
    11  F   -1.525026   1.095642  -1.009696   1.109954  -1.545202   1.522546
    12  F   -7.692419   4.902588  -2.904630   1.823333  -2.905518   4.902605
               7          8          9         10         11         12
     1  C  -86.515482 -86.592107  -1.523400   2.152129  -1.525026  -7.692419
     2  C   67.045212  51.775188   1.520929  -2.427581   1.095642   4.902588
     3  C  -57.920560 -35.864178  -1.542548   3.430742  -1.009696  -2.904630
     4  C   34.400299  34.435792   1.108216  -3.905338   1.109954   1.823333
     5  C  -35.852543 -57.993821  -1.008892   3.433187  -1.545202  -2.905518
     6  C   51.734957  67.091703   1.094383  -2.427638   1.522546   4.902605
     7  H   22.167756   6.360373   0.272831  -0.214601   0.078989   0.878357
     8  H    6.360373  22.210199   0.078955  -0.214848   0.273297   0.878836
     9  F    0.272831   0.078955   0.021270  -0.017287   0.002495   0.006645
    10  F   -0.214601  -0.214848  -0.017287   0.163141  -0.017326  -0.002009
    11  F    0.078989   0.273297   0.002495  -0.017326   0.021280   0.006648
    12  F    0.878357   0.878836   0.006645  -0.002009   0.006648   0.151878
 Mulliken charges and spin densities:
               1          2
     1  C    8.911777  -9.669748
     2  C   -5.797274   6.458975
     3  C    5.706529  -6.061230
     4  C   -4.786550   4.977691
     5  C    5.709964  -6.064804
     6  C   -5.796082   6.458058
     7  H   -2.127830   2.435589
     8  H   -2.131504   2.439389
     9  F   -0.172446   0.013597
    10  F   -0.161380  -0.047430
    11  F   -0.172365   0.013600
    12  F   -0.182841   0.046314
 Sum of Mulliken charges =  -1.00000   1.00000
 Mulliken charges and spin densities with hydrogens summed into heavy atoms:
               1          2
     1  C    8.911777  -9.669748
     2  C   -7.925104   8.894563
     3  C    5.706529  -6.061230
     4  C   -4.786550   4.977691
     5  C    5.709964  -6.064804
     6  C   -7.927586   8.897448
     9  F   -0.172446   0.013597
    10  F   -0.161380  -0.047430
    11  F   -0.172365   0.013600
    12  F   -0.182841   0.046314
 Electronic spatial extent (au):  <R**2>=           1442.4833
 Charge=             -1.0000 electrons
 Dipole moment (field-independent basis, Debye):
    X=             -4.1450    Y=             -2.4056    Z=              0.0000  Tot=              4.7925
 Quadrupole moment (field-independent basis, Debye-Ang):
   XX=           -100.6163   YY=           -107.2686   ZZ=            -74.2759
   XY=              5.7264   XZ=             -0.0000   YZ=              0.0000
 Traceless Quadrupole moment (field-independent basis, Debye-Ang):
   XX=             -6.5627   YY=            -13.2150   ZZ=             19.7777
   XY=              5.7264   XZ=             -0.0000   YZ=              0.0000
 Octapole moment (field-independent basis, Debye-Ang**2):
  XXX=            -74.6827  YYY=            -62.6976  ZZZ=              0.0000  XYY=            -24.8880
  XXY=              4.8589  XXZ=             -0.0000  XZZ=            -13.1937  YZZ=             -7.6661
  YYZ=              0.0000  XYZ=              0.0000
 Hexadecapole moment (field-independent basis, Debye-Ang**3):
 XXXX=          -1600.1785 YYYY=          -1790.7893 ZZZZ=           -258.1618 XXXY=             96.1488
 XXXZ=             -0.0000 YYYX=             67.7902 YYYZ=              0.0000 ZZZX=             -0.0000
 ZZZY=              0.0000 XXYY=           -554.1562 XXZZ=           -266.6363 YYZZ=           -285.7936
 XXYZ=              0.0000 YYXZ=             -0.0000 ZZXY=             16.4681
 N-N= 5.212759806058D+02 E-N=-2.537195820704D+03  KE= 6.270911027319D+02
                          Isotropic Fermi Contact Couplings
        Atom                 a.u.       MegaHertz       Gauss      10(-4) cm-1
     1  C(13)              0.00281       3.16300       1.12864       1.05506
     2  C(13)              0.02345      26.35906       9.40557       8.79243
     3  C(13)              0.00021       0.23487       0.08381       0.07834
     4  C(13)              0.00133       1.49136       0.53215       0.49746
     5  C(13)              0.00021       0.23577       0.08413       0.07864
     6  C(13)              0.02349      26.40190       9.42086       8.80673
     7  H(1)               0.00056       2.51965       0.89907       0.84046
     8  H(1)               0.00056       2.51519       0.89748       0.83898
     9  F(19)              0.04103     172.61301      61.59261      57.57750
    10  F(19)              0.02588     108.89426      38.85618      36.32321
    11  F(19)              0.04102     172.58971      61.58430      57.56973
    12  F(19)              0.03032     127.57725      45.52274      42.55519
 --------------------------------------------------------
       Center         ----  Spin Dipole Couplings  ----
                      3XX-RR        3YY-RR        3ZZ-RR
 --------------------------------------------------------
     1   Atom       -0.000231      0.000253     -0.000022
     2   Atom        0.008310     -0.002579     -0.005731
     3   Atom       -0.001521      0.003905     -0.002384
     4   Atom        0.007198     -0.000192     -0.007006
     5   Atom        0.000330      0.002051     -0.002380
     6   Atom       -0.002227      0.007962     -0.005735
     7   Atom        0.002160      0.000405     -0.002565
     8   Atom       -0.002494      0.005062     -0.002568
     9   Atom       -0.001680      0.005384     -0.003704
    10   Atom        0.003948      0.000109     -0.004057
    11   Atom        0.006629     -0.002924     -0.003705
    12   Atom        0.001576      0.001056     -0.002632
 --------------------------------------------------------
                        XY            XZ            YZ
 --------------------------------------------------------
     1   Atom       -0.000418      0.000000     -0.000000
     2   Atom       -0.002726     -0.000000      0.000000
     3   Atom       -0.002561     -0.000000      0.000000
     4   Atom        0.006399     -0.000000     -0.000000
     5   Atom       -0.003625     -0.000000      0.000000
     6   Atom        0.003352      0.000000      0.000000
     7   Atom       -0.003850      0.000000     -0.000000
     8   Atom       -0.001167      0.000000     -0.000000
     9   Atom        0.003492     -0.000000     -0.000000
    10   Atom        0.003317      0.000000      0.000000
    11   Atom       -0.001291      0.000000     -0.000000
    12   Atom        0.000466      0.000000     -0.000000
 --------------------------------------------------------


 ---------------------------------------------------------------------------------
              Anisotropic Spin Dipole Couplings in Principal Axis System
 ---------------------------------------------------------------------------------

       Atom             a.u.   MegaHertz   Gauss  10(-4) cm-1        Axes

              Baa    -0.0005    -0.063    -0.023    -0.021  0.8663  0.4995 -0.0000
     1 C(13)  Bbb    -0.0000    -0.003    -0.001    -0.001 -0.0000  0.0000  1.0000
              Bcc     0.0005     0.066     0.024     0.022 -0.4995  0.8663 -0.0000
 
              Baa    -0.0057    -0.769    -0.274    -0.257  0.0000  0.0000  1.0000
     2 C(13)  Bbb    -0.0032    -0.433    -0.154    -0.144  0.2300  0.9732 -0.0000
              Bcc     0.0090     1.202     0.429     0.401  0.9732 -0.2300 -0.0000
 
              Baa    -0.0025    -0.341    -0.122    -0.114  0.9293  0.3693 -0.0000
     3 C(13)  Bbb    -0.0024    -0.320    -0.114    -0.107  0.0000  0.0000  1.0000
              Bcc     0.0049     0.661     0.236     0.220 -0.3693  0.9293  0.0000
 
              Baa    -0.0070    -0.940    -0.335    -0.314 -0.0000  0.0000  1.0000
     4 C(13)  Bbb    -0.0039    -0.522    -0.186    -0.174 -0.5000  0.8660 -0.0000
              Bcc     0.0109     1.462     0.522     0.488  0.8660  0.5000 -0.0000
 
              Baa    -0.0025    -0.340    -0.121    -0.113  0.7845  0.6201  0.0000
     5 C(13)  Bbb    -0.0024    -0.319    -0.114    -0.107 -0.0000 -0.0000  1.0000
              Bcc     0.0049     0.660     0.235     0.220 -0.6201  0.7845  0.0000
 
              Baa    -0.0057    -0.770    -0.275    -0.257 -0.0000 -0.0000  1.0000
     6 C(13)  Bbb    -0.0032    -0.433    -0.155    -0.145  0.9580 -0.2869  0.0000
              Bcc     0.0090     1.203     0.429     0.401  0.2869  0.9580  0.0000
 
              Baa    -0.0027    -1.422    -0.508    -0.474  0.6236  0.7817 -0.0000
     7 H(1)   Bbb    -0.0026    -1.368    -0.488    -0.456  0.0000  0.0000  1.0000
              Bcc     0.0052     2.791     0.996     0.931  0.7817 -0.6236  0.0000
 
              Baa    -0.0027    -1.425    -0.508    -0.475  0.9888  0.1492  0.0000
     8 H(1)   Bbb    -0.0026    -1.370    -0.489    -0.457 -0.0000  0.0000  1.0000
              Bcc     0.0052     2.795     0.997     0.932 -0.1492  0.9888 -0.0000
 
              Baa    -0.0037    -1.860    -0.664    -0.620 -0.0000  0.0000  1.0000
     9 F(19)  Bbb    -0.0031    -1.564    -0.558    -0.522  0.9250 -0.3800  0.0000
              Bcc     0.0068     3.425     1.222     1.142  0.3800  0.9250 -0.0000
 
              Baa    -0.0041    -2.038    -0.727    -0.680  0.0000 -0.0000  1.0000
    10 F(19)  Bbb    -0.0018    -0.906    -0.323    -0.302 -0.4996  0.8663  0.0000
              Bcc     0.0059     2.943     1.050     0.982  0.8663  0.4996  0.0000
 
              Baa    -0.0037    -1.861    -0.664    -0.621 -0.0000  0.0000  1.0000
    11 F(19)  Bbb    -0.0031    -1.555    -0.555    -0.519  0.1316  0.9913 -0.0000
              Bcc     0.0068     3.415     1.219     1.139  0.9913 -0.1316  0.0000
 
              Baa    -0.0026    -1.322    -0.472    -0.441 -0.0000  0.0000  1.0000
    12 F(19)  Bbb     0.0008     0.393     0.140     0.131 -0.5063  0.8623 -0.0000
              Bcc     0.0018     0.929     0.331     0.310  0.8623  0.5063  0.0000
 

 ---------------------------------------------------------------------------------

 No NMR shielding tensors so no spin-rotation constants.
 Leave Link  601 at Thu Jan 30 14:25:19 2025, MaxMem=   104857600 cpu:               0.1 elap:               0.1
 (Enter /sw/cluster/pub/apps//g16/l701.exe)
 ... and contract with generalized density number  0.
 Compute integral first derivatives.
 Leave Link  701 at Thu Jan 30 14:25:20 2025, MaxMem=   104857600 cpu:               0.1 elap:               0.1
 (Enter /sw/cluster/pub/apps//g16/l702.exe)
 L702 exits ... SP integral derivatives will be done elsewhere.
 Leave Link  702 at Thu Jan 30 14:25:20 2025, MaxMem=   104857600 cpu:               0.0 elap:               0.0
 (Enter /sw/cluster/pub/apps//g16/l703.exe)
 Integral derivatives from FoFJK, PRISM(SPDF).
 Compute integral first derivatives, UseDBF=F ICtDFT=           0.
 Calling FoFJK, ICntrl=      2127 FMM=F ISym2X=0 I1Cent= 0 IOpClX= 1 NMat=1 NMatS=1 NMatT=0.
 FoFJK:  IHMeth= 1 ICntrl=    2127 DoSepK=F KAlg= 0 I1Cent=           0 FoldK=F
 IRaf=         0 NMat=       1 IRICut=       1 DoRegI=T DoRafI=F ISym2E= 0 IDoP0=0 IntGTp=1.
 FoFCou: FMM=F IPFlag=           0 FMFlag=      100000 FMFlg1=         800
         NFxFlg=           0 DoJE=F BraDBF=F KetDBF=F FulRan=T
         wScrn=  0.000000 ICntrl=      2127 IOpCl=  1 I1Cent=           0 NGrid=           0
         NMat0=    1 NMatS0=      1 NMatT0=    0 NMatD0=    1 NMtDS0=    0 NMtDT0=    0
 Symmetry not used in FoFCou.
 Leave Link  703 at Thu Jan 30 14:25:35 2025, MaxMem=   104857600 cpu:              15.4 elap:              15.5
 (Enter /sw/cluster/pub/apps//g16/l716.exe)
 Dipole        =-1.63075658D+00-9.46443876D-01 7.63909800D-09
 -------------------------------------------------------------------
 Center     Atomic                   Forces (Hartrees/Bohr)
 Number     Number              X              Y              Z
 -------------------------------------------------------------------
      1        6          -0.001825627   -0.001096243   -0.000000000
      2        6           0.003769758   -0.003196102    0.000000005
      3        6          -0.000168894    0.007252785   -0.000000014
      4        6           0.006582760    0.003850553    0.000000000
      5        6           0.006135676   -0.003798024    0.000000014
      6        6          -0.000901381    0.004834021   -0.000000005
      7        1          -0.001386726    0.000812102   -0.000000000
      8        1           0.000028507   -0.001588747    0.000000000
      9        9          -0.000735192   -0.005564560    0.000000006
     10        9          -0.006238353   -0.003637593   -0.000000000
     11        9          -0.005174495    0.002166165   -0.000000006
     12        9          -0.000086033   -0.000034357    0.000000000
 -------------------------------------------------------------------
 Cartesian Forces:  Max     0.007252785 RMS     0.003056146
 Leave Link  716 at Thu Jan 30 14:25:35 2025, MaxMem=   104857600 cpu:               0.0 elap:               0.0
 (Enter /sw/cluster/pub/apps//g16/l103.exe)

 GradGradGradGradGradGradGradGradGradGradGradGradGradGradGradGradGradGrad
 Berny optimization.
 FormGI is forming the generalized inverse of G from B-inverse, IUseBI=4.
 Internal  Forces:  Max     0.007221358 RMS     0.001628988
 Search for a local minimum.
 Step number   1 out of a maximum of   64
 All quantities printed in internal units (Hartrees-Bohrs-Radians)
 RMS Force = .16290D-02 SwitMx=.10000D-02 MixMth= 1
 Mixed Optimization -- RFO/linear search
 Second derivative matrix not updated -- first step.
 ITU=  0
     Eigenvalues ---    0.02253   0.02266   0.02280   0.02285   0.02298
     Eigenvalues ---    0.02311   0.02311   0.02311   0.02311   0.16000
     Eigenvalues ---    0.16000   0.23508   0.23508   0.25000   0.25000
     Eigenvalues ---    0.25000   0.25000   0.25000   0.35719   0.35720
     Eigenvalues ---    0.43813   0.43966   0.47901   0.48154   0.48518
     Eigenvalues ---    0.48520   0.57800   0.59523   0.59524   0.60037
 RFO step:  Lambda=-2.94395706D-04 EMin= 2.25344862D-02
 Linear search not attempted -- first point.
 Iteration  1 RMS(Cart)=  0.00338394 RMS(Int)=  0.00001016
 Iteration  2 RMS(Cart)=  0.00001317 RMS(Int)=  0.00000063
 Iteration  3 RMS(Cart)=  0.00000000 RMS(Int)=  0.00000063
 ITry= 1 IFail=0 DXMaxC= 1.02D-02 DCOld= 1.00D+10 DXMaxT= 3.00D-01 DXLimC= 3.00D+00 Rises=F
 Variable       Old X    -DE/DX   Delta X   Delta X   Delta X     New X
                                 (Linear)    (Quad)   (Total)
    R1        2.61392   0.00136   0.00000   0.00309   0.00309   2.61701
    R2        2.61387   0.00140   0.00000   0.00316   0.00316   2.61703
    R3        2.52725  -0.00009   0.00000  -0.00016  -0.00016   2.52709
    R4        2.61392  -0.00024   0.00000  -0.00049  -0.00049   2.61343
    R5        2.04524  -0.00161   0.00000  -0.00450  -0.00450   2.04074
    R6        2.62203  -0.00080   0.00000  -0.00197  -0.00197   2.62007
    R7        2.51319   0.00557   0.00000   0.00936   0.00936   2.52255
    R8        2.62214  -0.00082   0.00000  -0.00201  -0.00201   2.62013
    R9        2.50911   0.00722   0.00000   0.01202   0.01202   2.52113
   R10        2.61388  -0.00021   0.00000  -0.00044  -0.00044   2.61344
   R11        2.51320   0.00557   0.00000   0.00936   0.00936   2.52256
   R12        2.04521  -0.00159   0.00000  -0.00444  -0.00444   2.04077
    A1        2.14516   0.00171   0.00000   0.00820   0.00820   2.15336
    A2        2.06888  -0.00084   0.00000  -0.00403  -0.00403   2.06484
    A3        2.06915  -0.00087   0.00000  -0.00417  -0.00417   2.06498
    A4        2.05322  -0.00183   0.00000  -0.00734  -0.00734   2.04588
    A5        2.12252   0.00091   0.00000   0.00364   0.00364   2.12616
    A6        2.10744   0.00092   0.00000   0.00371   0.00371   2.11115
    A7        2.12254   0.00063   0.00000   0.00226   0.00225   2.12479
    A8        2.09314   0.00051   0.00000   0.00216   0.00216   2.09529
    A9        2.06751  -0.00114   0.00000  -0.00441  -0.00441   2.06310
   A10        2.06968   0.00071   0.00000   0.00200   0.00200   2.07168
   A11        2.10701  -0.00040   0.00000  -0.00117  -0.00117   2.10584
   A12        2.10649  -0.00031   0.00000  -0.00083  -0.00083   2.10566
   A13        2.12288   0.00058   0.00000   0.00205   0.00205   2.12493
   A14        2.06710  -0.00108   0.00000  -0.00418  -0.00418   2.06292
   A15        2.09320   0.00050   0.00000   0.00213   0.00213   2.09533
   A16        2.05289  -0.00179   0.00000  -0.00717  -0.00717   2.04572
   A17        2.12290   0.00087   0.00000   0.00343   0.00343   2.12633
   A18        2.10740   0.00092   0.00000   0.00373   0.00373   2.11113
    D1       -0.00000   0.00000   0.00000   0.00000   0.00000   0.00000
    D2        3.14159   0.00000   0.00000   0.00000   0.00000  -3.14159
    D3        3.14159   0.00000   0.00000   0.00000   0.00000  -3.14159
    D4        0.00000   0.00000   0.00000   0.00000   0.00000   0.00000
    D5        0.00000   0.00000   0.00000   0.00000   0.00000   0.00000
    D6        3.14159   0.00000   0.00000   0.00000   0.00000  -3.14159
    D7        3.14159   0.00000   0.00000   0.00000   0.00000  -3.14159
    D8       -0.00000   0.00000   0.00000   0.00000   0.00000   0.00000
    D9       -0.00000  -0.00000   0.00000  -0.00000  -0.00000  -0.00000
   D10        3.14159   0.00000   0.00000   0.00000   0.00000  -3.14159
   D11        3.14159  -0.00000   0.00000  -0.00000  -0.00000   3.14159
   D12        0.00000   0.00000   0.00000   0.00000   0.00000   0.00000
   D13        0.00000   0.00000   0.00000   0.00000   0.00000   0.00000
   D14        3.14159   0.00000   0.00000   0.00000   0.00000  -3.14159
   D15        3.14159  -0.00000   0.00000  -0.00000  -0.00000   3.14159
   D16       -0.00000  -0.00000   0.00000  -0.00000  -0.00000  -0.00000
   D17       -0.00000   0.00000   0.00000   0.00000   0.00000   0.00000
   D18        3.14159  -0.00000   0.00000  -0.00000  -0.00000   3.14159
   D19        3.14159   0.00000   0.00000   0.00000   0.00000  -3.14159
   D20        0.00000  -0.00000   0.00000  -0.00000  -0.00000  -0.00000
   D21       -0.00000  -0.00000   0.00000  -0.00000  -0.00000  -0.00000
   D22        3.14159  -0.00000   0.00000  -0.00000  -0.00000   3.14159
   D23        3.14159   0.00000   0.00000   0.00000   0.00000  -3.14159
   D24       -0.00000   0.00000   0.00000   0.00000   0.00000   0.00000
         Item               Value     Threshold  Converged?
 Maximum Force            0.007221     0.000450     NO 
 RMS     Force            0.001629     0.000300     NO 
 Maximum Displacement     0.010168     0.001800     NO 
 RMS     Displacement     0.003386     0.001200     NO 
 Predicted change in Energy=-1.472991D-04
 Lowest energy point so far.  Saving SCF results.
 GradGradGradGradGradGradGradGradGradGradGradGradGradGradGradGradGradGrad

 Leave Link  103 at Thu Jan 30 14:25:35 2025, MaxMem=   104857600 cpu:               0.0 elap:               0.0
 (Enter /sw/cluster/pub/apps//g16/l202.exe)
                          Input orientation:                          
 ---------------------------------------------------------------------
 Center     Atomic      Atomic             Coordinates (Angstroms)
 Number     Number       Type             X           Y           Z
 ---------------------------------------------------------------------
      1          6           0        1.175131    0.678477    0.000000
      2          6           0        1.215915   -0.705783   -0.000000
      3          6           0        0.005266   -1.374311   -0.000000
      4          6           0       -1.203242   -0.694726    0.000000
      5          6           0       -1.187469    0.691700    0.000000
      6          6           0       -0.003249    1.406005    0.000000
      7          1           0        2.149899   -1.247900    0.000000
      8          1           0       -0.005863    2.485928   -0.000000
      9          9           0       -0.021375   -2.708920    0.000000
     10          9           0       -2.358703   -1.361658   -0.000000
     11          9           0       -2.356691    1.335772   -0.000000
     12          9           0        2.333315    1.347000    0.000000
 ---------------------------------------------------------------------
                    Distance matrix (angstroms):
                    1          2          3          4          5
     1  C    0.000000
     2  C    1.384860   0.000000
     3  C    2.362736   1.382968   0.000000
     4  C    2.746333   2.419182   1.386480   0.000000
     5  C    2.362637   2.780146   2.385585   1.386515   0.000000
     6  C    1.384874   2.438444   2.780329   2.419308   1.382971
     7  H    2.158958   1.079915   2.148355   3.398463   3.860061
     8  H    2.159080   3.417567   3.860255   3.398570   2.148359
     9  F    3.592504   2.354452   1.334875   2.335334   3.594995
    10  F    4.080457   3.634290   2.364002   1.334125   2.363909
    11  F    3.592465   4.114786   3.594912   2.335245   1.334882
    12  F    1.337278   2.337200   3.581250   4.083611   3.581248
                    6          7          8          9         10
     6  C    0.000000
     7  H    3.417492   0.000000
     8  H    1.079927   4.311471   0.000000
     9  F    4.114965   2.617061   5.194871   0.000000
    10  F    3.634298   4.510036   4.509964   2.697816   0.000000
    11  F    2.354490   5.194681   2.617107   4.670464   2.697431
    12  F    2.337308   2.601375   2.601713   4.689888   5.417736
                   11         12
    11  F    0.000000
    12  F    4.690019   0.000000
 Symmetry turned off by external request.
 Stoichiometry    C6H2F4(1-,2)
 Framework group  C1[X(C6H2F4)]
 Deg. of freedom    30
 Full point group                 C1      NOp   1
 Rotational constants (GHZ):           1.7646064           1.2479875           0.7310002
 Leave Link  202 at Thu Jan 30 14:25:35 2025, MaxMem=   104857600 cpu:               0.0 elap:               0.0
 (Enter /sw/cluster/pub/apps//g16/l301.exe)
 Standard basis: 6-311++G(d,p) (5D, 7F)
 Ernie: Thresh=  0.10000D-02 Tol=  0.10000D-05 Strict=F.
   234 basis functions,   378 primitive gaussians,   244 cartesian basis functions
    38 alpha electrons       37 beta electrons
       nuclear repulsion energy       520.8762190941 Hartrees.
 IExCor= 1009 DFT=T Ex+Corr=PBE1PBE ExCW=0 ScaHFX=  0.250000
 ScaDFX=  0.750000  0.750000  1.000000  1.000000 ScalE2=  1.000000  1.000000
 IRadAn=      5 IRanWt=     -1 IRanGd=            0 ICorTp=0 IEmpDi=  4
 NAtoms=   12 NActive=   12 NUniq=   12 SFac= 1.00D+00 NAtFMM=   60 NAOKFM=F Big=F
 Integral buffers will be    131072 words long.
 Raffenetti 2 integral format.
 Two-electron integral symmetry is turned off.
 Leave Link  301 at Thu Jan 30 14:25:35 2025, MaxMem=   104857600 cpu:               0.0 elap:               0.0
 (Enter /sw/cluster/pub/apps//g16/l302.exe)
 NPDir=0 NMtPBC=     1 NCelOv=     1 NCel=       1 NClECP=     1 NCelD=      1
         NCelK=      1 NCelE2=     1 NClLst=     1 CellRange=     0.0.
 One-electron integrals computed using PRISM.
 NBasis=   234 RedAO= T EigKep=  2.29D-06  NBF=   234
 NBsUse=   234 1.00D-06 EigRej= -1.00D+00 NBFU=   234
 Precomputing XC quadrature grid using
 IXCGrd= 4 IRadAn=           5 IRanWt=          -1 IRanGd=           0 AccXCQ= 0.00D+00.
 Generated NRdTot=       0 NPtTot=           0 NUsed=           0 NTot=          32
 NSgBfM=   244   244   244   244   244 MxSgAt=    12 MxSgA2=    12.
 Leave Link  302 at Thu Jan 30 14:25:35 2025, MaxMem=   104857600 cpu:               0.1 elap:               0.1
 (Enter /sw/cluster/pub/apps//g16/l303.exe)
 DipDrv:  MaxL=1.
 Leave Link  303 at Thu Jan 30 14:25:35 2025, MaxMem=   104857600 cpu:               0.0 elap:               0.0
 (Enter /sw/cluster/pub/apps//g16/l401.exe)
 Initial guess from the checkpoint file:  "1-2-3-5-TtFB-ANI.chk"
 B after Tr=    -0.001437   -0.000798    0.000000
         Rot=    1.000000    0.000000    0.000000   -0.000005 Ang=  -0.00 deg.
 Guess basis will be translated and rotated to current coordinates.
 JPrj=2 DoOrth=T DoCkMO=T.
 Initial guess <Sx>= 0.0000 <Sy>= 0.0000 <Sz>= 0.5000 <S**2>= 0.7500 S= 0.5000
 Leave Link  401 at Thu Jan 30 14:25:35 2025, MaxMem=   104857600 cpu:               0.0 elap:               0.0
 (Enter /sw/cluster/pub/apps//g16/l502.exe)
 Two-electron integral symmetry not used.
 UHF open shell SCF:
 Using DIIS extrapolation, IDIIS=  1040.
 NGot=   104857600 LenX=   104735324 LenY=   104675347
 Requested convergence on RMS density matrix=1.00D-08 within 128 cycles.
 Requested convergence on MAX density matrix=1.00D-06.
 Requested convergence on             energy=1.00D-06.
 No special actions if energy rises.
 Fock matrices will be formed incrementally for  20 cycles.

 Cycle   1  Pass 1  IDiag  1:
 FoFJK:  IHMeth= 1 ICntrl=       0 DoSepK=F KAlg= 0 I1Cent=           0 FoldK=F
[...]
   D24       -0.00000   0.00000   0.00000  -0.00000  -0.00000  -0.00000
         Item               Value     Threshold  Converged?
 Maximum Force            0.000236     0.000450     YES
 RMS     Force            0.000047     0.000300     YES
 Maximum Displacement     0.001155     0.001800     YES
 RMS     Displacement     0.000270     0.001200     YES
 Predicted change in Energy=-2.332001D-07
 Optimization completed.
    -- Stationary point found.
                           ----------------------------
                           !   Optimized Parameters   !
                           ! (Angstroms and Degrees)  !
 --------------------------                            --------------------------
 ! Name  Definition              Value          Derivative Info.                !
 --------------------------------------------------------------------------------
 ! R1    R(1,2)                  1.3851         -DE/DX =    0.0                 !
 ! R2    R(1,6)                  1.3851         -DE/DX =    0.0                 !
 ! R3    R(1,12)                 1.3379         -DE/DX =    0.0002              !
 ! R4    R(2,3)                  1.3828         -DE/DX =    0.0                 !
 ! R5    R(2,7)                  1.0796         -DE/DX =    0.0                 !
 ! R6    R(3,4)                  1.3855         -DE/DX =    0.0                 !
 ! R7    R(3,9)                  1.3372         -DE/DX =    0.0001              !
 ! R8    R(4,5)                  1.3856         -DE/DX =    0.0                 !
 ! R9    R(4,10)                 1.3366         -DE/DX =    0.0                 !
 ! R10   R(5,6)                  1.3828         -DE/DX =    0.0                 !
 ! R11   R(5,11)                 1.3372         -DE/DX =    0.0001              !
 ! R12   R(6,8)                  1.0796         -DE/DX =    0.0                 !
 ! A1    A(2,1,6)              123.5418         -DE/DX =    0.0                 !
 ! A2    A(2,1,12)             118.2274         -DE/DX =    0.0                 !
 ! A3    A(6,1,12)             118.2308         -DE/DX =    0.0                 !
 ! A4    A(1,2,3)              117.065          -DE/DX =    0.0                 !
 ! A5    A(1,2,7)              121.7988         -DE/DX =   -0.0001              !
 ! A6    A(3,2,7)              121.1362         -DE/DX =    0.0001              !
 ! A7    A(2,3,4)              121.7953         -DE/DX =    0.0                 !
 ! A8    A(2,3,9)              120.0623         -DE/DX =    0.0                 !
 ! A9    A(4,3,9)              118.1425         -DE/DX =    0.0001              !
 ! A10   A(3,4,5)              118.7387         -DE/DX =    0.0                 !
 ! A11   A(3,4,10)             120.6315         -DE/DX =    0.0                 !
 ! A12   A(5,4,10)             120.6299         -DE/DX =    0.0                 !
 ! A13   A(4,5,6)              121.7973         -DE/DX =    0.0                 !
 ! A14   A(4,5,11)             118.1392         -DE/DX =    0.0001              !
 ! A15   A(6,5,11)             120.0636         -DE/DX =    0.0                 !
 ! A16   A(1,6,5)              117.0621         -DE/DX =    0.0                 !
 ! A17   A(1,6,8)              121.8013         -DE/DX =   -0.0001              !
 ! A18   A(5,6,8)              121.1366         -DE/DX =    0.0001              !
 ! D1    D(6,1,2,3)              0.0            -DE/DX =    0.0                 !
 ! D2    D(6,1,2,7)            180.0            -DE/DX =    0.0                 !
 ! D3    D(12,1,2,3)          -180.0            -DE/DX =    0.0                 !
 ! D4    D(12,1,2,7)             0.0            -DE/DX =    0.0                 !
 ! D5    D(2,1,6,5)              0.0            -DE/DX =    0.0                 !
 ! D6    D(2,1,6,8)           -180.0            -DE/DX =    0.0                 !
 ! D7    D(12,1,6,5)           180.0            -DE/DX =    0.0                 !
 ! D8    D(12,1,6,8)             0.0            -DE/DX =    0.0                 !
 ! D9    D(1,2,3,4)              0.0            -DE/DX =    0.0                 !
 ! D10   D(1,2,3,9)           -180.0            -DE/DX =    0.0                 !
 ! D11   D(7,2,3,4)            180.0            -DE/DX =    0.0                 !
 ! D12   D(7,2,3,9)              0.0            -DE/DX =    0.0                 !
 ! D13   D(2,3,4,5)              0.0            -DE/DX =    0.0                 !
 ! D14   D(2,3,4,10)           180.0            -DE/DX =    0.0                 !
 ! D15   D(9,3,4,5)           -180.0            -DE/DX =    0.0                 !
 ! D16   D(9,3,4,10)             0.0            -DE/DX =    0.0                 !
 ! D17   D(3,4,5,6)              0.0            -DE/DX =    0.0                 !
 ! D18   D(3,4,5,11)           180.0            -DE/DX =    0.0                 !
 ! D19   D(10,4,5,6)          -180.0            -DE/DX =    0.0                 !
 ! D20   D(10,4,5,11)            0.0            -DE/DX =    0.0                 !
 ! D21   D(4,5,6,1)              0.0            -DE/DX =    0.0                 !
 ! D22   D(4,5,6,8)            180.0            -DE/DX =    0.0                 !
 ! D23   D(11,5,6,1)           180.0            -DE/DX =    0.0                 !
 ! D24   D(11,5,6,8)             0.0            -DE/DX =    0.0                 !
 --------------------------------------------------------------------------------
 GradGradGradGradGradGradGradGradGradGradGradGradGradGradGradGradGradGrad

 Leave Link  103 at Thu Jan 30 14:40:39 2025, MaxMem=   104857600 cpu:               0.0 elap:               0.0
 (Enter /sw/cluster/pub/apps//g16/l9999.exe)

 ----------------------------------------------------------------------

 Electric dipole moment (input orientation):
 (Debye = 10**-18 statcoulomb cm , SI units = C m)
                  (au)            (Debye)         (10**-30 SI)
   Tot        0.183008D+01      0.465159D+01      0.155160D+02
   x         -0.158348D+01     -0.402481D+01     -0.134253D+02
   y         -0.917475D+00     -0.233199D+01     -0.777868D+01
   z          0.000000D+00      0.000000D+00      0.000000D+00

 Dipole polarizability, Alpha (input orientation).
 (esu units = cm**3 , SI units = C**2 m**2 J**-1)
 Alpha(0;0):
               (au)            (10**-24 esu)      (10**-40 SI)
   iso        0.153356D+04      0.227250D+03      0.252849D+03
   aniso      0.292571D+04      0.433545D+03      0.482384D+03
   xx         0.150210D+04      0.222588D+03      0.247663D+03
   yx        -0.112453D+04     -0.166639D+03     -0.185410D+03
   yy         0.280942D+04      0.416313D+03      0.463211D+03
   zx         0.393987D-02      0.583828D-03      0.649596D-03
   zy        -0.110829D-01     -0.164232D-02     -0.182733D-02
   zz         0.289150D+03      0.428476D+02      0.476744D+02

 ----------------------------------------------------------------------

 Dipole orientation:
     6          0.00197263         -0.00340460         -2.56189910
     6          1.15714179         -1.99712432         -1.32028380
     6          1.12849534         -1.94768231          1.29227416
     6         -0.00201824          0.00348332          2.62282517
     6         -1.13047783          1.95110391          1.28531367
     6         -1.15512954          1.99365133         -1.32742632
     1          2.04391849         -3.52762257         -2.33672328
     1         -2.04035417          3.52147083         -2.34928041
     9          2.21075523         -3.81556885          2.60561201
     9         -0.00398906          0.00688481          5.14858598
     9         -2.21472350          3.82241775          2.59210754
     9          0.00397609         -0.00686238         -5.09017201

 Electric dipole moment (dipole orientation):
 (Debye = 10**-18 statcoulomb cm , SI units = C m)
                  (au)            (Debye)         (10**-30 SI)
   Tot        0.183008D+01      0.465159D+01      0.155160D+02
   x          0.000000D+00      0.000000D+00      0.000000D+00
   y          0.000000D+00      0.000000D+00      0.000000D+00
   z          0.183008D+01      0.465159D+01      0.155160D+02

 Dipole polarizability, Alpha (dipole orientation).
 (esu units = cm**3 , SI units = C**2 m**2 J**-1)
 Alpha(0;0):
               (au)            (10**-24 esu)      (10**-40 SI)
   iso        0.153356D+04      0.227250D+03      0.252849D+03
   aniso      0.292571D+04      0.433545D+03      0.482384D+03
   xx         0.108521D+04      0.160811D+03      0.178927D+03
   yx        -0.137392D+04     -0.203593D+03     -0.226528D+03
   yy         0.266039D+04      0.394229D+03      0.438639D+03
   zx         0.392402D+01      0.581480D+00      0.646984D+00
   zy        -0.676823D+01     -0.100295D+01     -0.111593D+01
   zz         0.855075D+03      0.126709D+03      0.140983D+03

 ----------------------------------------------------------------------
 1\1\GINC-N02\Freq\UPBE1PBE\6-311++G(d,p)\C6H2F4(1-,2)\UNKNOWN\30-Jan-2
 025\0\\#P Geom=AllCheck Guess=TCheck SCRF=Check GenChk UPBE1PBE/6-311+
 +G(d,p) Freq\\1 2 3 4 TtFB SP\\-1,2\C,1.1740688015,0.6778536276,-0.000
 0000003\C,1.2168555867,-0.706569943,0.0000000426\C,0.0054761051,-1.373
 5011938,0.0000002436\C,-1.2019893484,-0.6939752641,-0.0000000004\C,-1.
 1867335679,0.6914944454,-0.0000002472\C,-0.0034752602,1.4071524934,-0.
 0000000466\H,2.1515180085,-1.2468199181,0.0000000366\H,-0.0040363666,2
 .486731031,-0.0000000401\F,-0.02315845,-2.7103640093,-0.0000001845\F,-
 2.3595104394,-1.3622432875,0.0000000054\F,-2.3588379256,1.3350669016,0
 .0000001831\F,2.3327573744,1.3467582986,0.0000000067\\Version=ES64L-G1
 6RevA.03\HF=-628.6974866\S2=0.750042\S2-1=0.\S2A=0.75\RMSD=2.746e-09\R
 MSF=7.473e-05\ZeroPoint=0.0684129\Thermal=0.0755798\Dipole=-2.0816044,
 -1.2050816,0.\DipoleDeriv=-0.5117306,0.1783944,-0.0000525,0.3536038,-1
 .0003357,-0.0006892,-0.0034809,0.0011269,-0.6424854,-0.7529058,1.77890
 99,-0.0001204,0.2368883,-0.2098888,0.0002328,0.0057725,-0.0028391,2.45
 54936,-1.2692318,0.3155352,0.0000146,1.7415884,-0.8660685,0.0002334,-0
 .0033613,0.0041938,-1.994026,2.4504891,0.9722099,0.0003743,1.0016556,1
 .3414437,-0.0001321,0.0011516,-0.0014964,1.904349,-0.0416841,1.0902254
 ,-0.000401,-0.3421864,-2.1069467,-0.0002485,-0.0015751,-0.0003638,-1.9
 837533,0.4714809,-0.4212929,0.0001361,0.994572,-1.4764814,0.0004807,0.
 004558,-0.0009369,2.4554802,-0.6595801,-0.6761279,-0.0001424,0.0987056
 ,-0.2429943,-0.0000006,-0.0012263,0.0001009,-1.4323002,-0.6179623,0.10
 57083,0.0001269,-0.74273,-0.2583196,0.0001417,-0.0008864,0.0000165,-1.
 4285661,0.4300305,-0.4101248,-0.0000023,-2.4493942,1.1863139,-0.000006
 ,-0.0002204,-0.0007152,0.251934,-1.3120392,-0.8983441,0.0000181,-0.897
 4115,-0.2799545,0.0000315,-0.0002367,0.0001505,-0.5238283,-0.2479932,-
 2.0665829,0.0000453,-0.0161408,1.8618447,-0.0000436,-0.000273,0.000519
 7,0.2461604,1.0611267,0.0314895,0.0000032,0.0208494,1.051387,0.,-0.000
 2219,0.0002431,-0.3084577\Polar=1502.1004762,-1124.5330654,2809.421892
 6,0.0039399,-0.0110829,289.1498678\Quadrupole=-4.9448568,-9.6357015,14
 .5805583,4.0427113,-0.0000107,0.0000185\PG=C01 [X(C6H2F4)]\NImag=1\\0.
 69544812,-0.02134180,0.71976694,0.00001512,-0.00014253,0.13866654,-0.1
 3047809,0.06708269,-0.00004340,0.77816409,-0.00536310,-0.34510548,0.00
 007107,-0.03792200,0.72493441,-0.00003244,0.00034682,-0.09140030,0.000
 10069,-0.00015587,0.17573548,0.04396178,-0.09600181,0.00002496,-0.3223
 6906,-0.04726020,-0.00004965,0.73582891,-0.03188967,-0.02886365,-0.000
 02517,-0.12258480,-0.16035806,0.00000643,0.01030580,0.68676587,0.00002
 153,-0.00023524,0.05856090,-0.00006939,0.00008325,-0.12596870,0.000027
 35,0.00005668,0.22707270,-0.02036290,0.03774183,0.00004931,-0.05035986
 ,-0.02657546,-0.00014611,-0.28500517,0.14109547,0.00010993,0.72426828,
 0.03776711,-0.06178936,-0.00004938,0.02127780,0.06830514,0.00010909,0.
 05125276,-0.15874332,-0.00007247,-0.00363331,0.72653732,-0.00002799,0.
 00015866,-0.07420691,0.00005247,-0.00006205,0.03379056,-0.00002243,-0.
 00002796,-0.02513883,-0.00008127,0.00004873,0.05606813,-0.06271802,0.0
 2842116,-0.00014023,-0.01736342,-0.03005643,0.00030685,0.04529924,0.02
 578313,-0.00016637,-0.10784951,0.03795992,0.00012691,0.70688118,-0.033
 88445,0.08401002,0.00000435,-0.02964271,-0.05934981,0.00002378,0.09280
 705,-0.02651583,-0.00004363,-0.05184082,-0.33425549,0.00002233,0.02748
 258,0.71489575,0.00005098,-0.00022303,0.05654536,-0.00007874,0.0001104
 0,0.00469438,0.00004019,-0.00001896,-0.11728279,0.00011094,-0.00007138
 ,-0.02540185,-0.00022604,-0.00000091,0.22739798,-0.26678565,0.07513457
 ,0.00006915,0.03498230,0.06686886,-0.00014038,-0.07600605,0.00274042,0
 .00006131,0.03717755,-0.07640674,-0.00004925,-0.27455510,-0.07480288,0
 .00010452,0.70611862,0.14485727,-0.21243957,0.00009784,0.02658612,-0.0
 2147419,-0.00023790,0.00383444,0.00200301,0.00016337,-0.02927798,-0.02
 003654,-0.00010821,-0.14851162,-0.21052861,0.00014894,0.00225981,0.799
 74367,-0.00003543,0.00029170,-0.09020903,0.00008803,-0.00014117,0.0319
 6635,-0.00004689,0.00003118,0.00367232,-0.00012097,0.00009313,0.034017
 94,0.00027905,0.00000638,-0.12508101,-0.00013281,-0.00019858,0.1745177
 2,0.00101010,-0.00415930,-0.00001583,-0.28340905,0.13100647,0.00005498
 ,-0.01850689,0.01682748,-0.00004970,0.00197473,-0.00240703,0.00003878,
 0.00054647,-0.00289051,-0.00004856,0.00205123,-0.00022304,0.00004428,0
 .29420045,0.02591309,-0.00858922,0.00000479,0.13217283,-0.13105193,-0.
 00000895,-0.01525951,0.00810527,0.00000085,-0.00452805,-0.00240503,-0.
 00000270,-0.00224853,0.00044868,0.00000960,0.00023584,-0.00574180,-0.0
 0001020,-0.13925111,0.13111459,0.00000221,-0.00007195,0.00689907,-0.00
 001785,0.00003504,-0.04011320,0.00000979,-0.00000994,0.01399342,0.0000
 2761,-0.00002125,0.00270631,-0.00006671,-0.00000379,-0.00632045,0.0000
 3284,0.00004934,0.00381947,-0.00000791,0.00000250,0.02472994,0.0035945
 9,0.02524641,0.00001938,-0.00402507,0.00290251,-0.00005165,-0.00179016
 ,-0.00016150,0.00004045,-0.00434394,-0.00106002,-0.00002547,0.00267315
 ,-0.02759207,0.00002998,-0.05583192,0.00033794,-0.00004070,0.00041068,
 0.00070897,0.00001016,0.05103103,-0.00466412,-0.01263970,0.00002864,0.
 00224143,0.00040951,-0.00006782,-0.00136862,0.00375964,0.00005128,0.00
 150251,0.00360579,-0.00002908,0.00482654,-0.01376295,0.00003280,-0.001
 30361,-0.35750397,-0.00005306,-0.00155912,0.00067845,0.00001380,0.0011
 4791,0.37445635,0.00000345,-0.00005544,0.00772659,-0.00001463,0.000026
 96,0.00329453,0.00000831,-0.00000766,-0.00609719,0.00002094,-0.0000169
 4,0.00260288,-0.00005173,-0.00000231,0.01418641,0.00002517,0.00003804,
 -0.04064116,-0.00000649,0.00000195,0.00026671,0.00000775,0.00001062,0.
 02468781,-0.00670709,0.00514609,0.00000322,0.00756176,-0.04426978,-0.0
 0000493,-0.07278123,-0.00675735,0.00000220,0.00058380,0.03912061,-0.00
 000097,-0.00782623,-0.00455548,0.00000215,0.00353300,-0.00118517,-0.00
 000439,0.00271199,0.00158333,0.00000109,0.00033129,0.00060560,0.000000
 83,0.06645397,-0.00376049,0.00469430,0.00000580,-0.00544796,-0.0441798
 4,-0.00000842,-0.00751300,-0.32268820,-0.00000239,0.00408456,-0.054788
 99,0.00000141,0.00258713,0.00331153,0.00000434,-0.00023206,-0.00089891
 ,-0.00000989,-0.00122233,0.00435207,0.00000366,0.00022077,-0.00264732,
 0.00000267,0.00847854,0.40783611,0.00001218,-0.00003302,-0.00536967,-0
 .00001390,0.00002238,0.02063253,0.00000897,-0.00001828,-0.07062023,0.0
 0001517,-0.00001204,-0.00774557,-0.00004640,0.00000877,0.05732699,0.00
 002473,0.00002122,-0.01186802,-0.00000592,0.00000296,-0.00686623,0.000
 00284,0.00000272,0.00287294,0.00000057,0.00000228,0.03693023,0.0023805
 4,0.00013742,0.00000903,-0.00060638,0.00442659,-0.00001703,-0.05087769
 ,-0.03372058,0.00000733,-0.27202171,-0.11713047,-0.00000416,-0.0208457
 1,-0.01042209,0.00000888,-0.00157924,0.00222236,-0.00001539,-0.0027175
 8,0.00007236,0.00000439,0.00018430,-0.00160516,0.00000326,0.00714792,0
 .00029678,0.00000205,0.33334858,0.00026833,0.00192147,0.00000333,0.001
 52912,-0.00535378,-0.00000973,0.00698297,0.00479464,0.00000669,-0.1169
 6638,-0.13692098,-0.00000401,-0.05131593,-0.02542058,0.00000487,0.0050
 5362,-0.00426492,-0.00000779,-0.00004610,0.00106027,0.00000246,-0.0015
 3084,-0.00173500,0.00000180,0.00257448,0.00784856,0.00000041,0.1561982
 9,0.15298822,-0.00000015,-0.00002943,0.02084376,-0.00000642,0.00001303
 ,-0.00051380,0.00000219,0.00000153,-0.01083828,0.00001522,-0.00000698,
 -0.00750730,-0.00002440,-0.00000528,-0.01079369,0.00001117,0.00002000,
 -0.00053078,-0.00000519,0.00000078,0.00107795,0.00000460,0.00000515,0.
 00106711,0.00000011,0.00000076,0.00101757,0.00000128,0.00000116,0.0123
 0395,0.00232544,-0.00948874,0.00000880,-0.00048992,0.00213373,-0.00001
 980,-0.00029345,-0.00150008,0.00001450,-0.02212525,0.01710617,-0.00000
 710,-0.26657885,0.10417021,0.00000749,-0.05266985,0.02958644,-0.000015
 01,-0.00157992,0.00130030,0.00000425,0.00420953,-0.00186324,0.00000307
 ,0.00018758,0.00024999,0.00000032,0.00892700,-0.00072440,0.00000162,0.
 32987000,0.00002388,-0.00418780,-0.00000413,0.00109890,0.00302161,0.00
 001244,-0.00885864,-0.00437926,-0.00001221,0.05222394,-0.03188303,0.00
 000633,0.10509128,-0.12899880,-0.00000461,-0.00949464,0.01603595,0.000
 00816,0.00167625,-0.00076369,-0.00000217,0.00070664,0.00285118,-0.0000
 0153,0.00224152,-0.00125686,0.00000054,0.00154525,0.00607461,-0.000001
 24,-0.14360256,0.14448437,-0.00001378,0.00002792,-0.00485333,0.0000133
 9,-0.00001656,-0.01217208,-0.00000716,0.00000654,0.05739970,-0.0000180
 2,0.00000945,-0.00776036,0.00003592,-0.00000396,-0.07064061,-0.0000170
 3,-0.00001766,0.02036563,0.00000928,-0.00000219,0.00288338,-0.00000291
 ,-0.00000147,-0.00685441,-0.00000004,-0.00000025,-0.02059279,-0.000000
 64,-0.00000023,0.00098926,0.00000025,-0.00000020,0.03700221,-0.2616688
 2,-0.10791852,0.00000049,-0.01160730,-0.01589120,-0.00000052,0.0025397
 6,-0.00013830,0.00000086,-0.00193602,-0.00384681,0.00000047,0.00233680
 ,0.01117116,-0.00000179,-0.05643489,-0.03048658,0.00000022,0.00330779,
 -0.00069951,0.00000015,0.00355652,0.00203989,0.00000007,-0.00119676,0.
 00225809,-0.00000060,-0.00334003,-0.00202317,-0.00000003,-0.00178230,-
 0.00265182,0.00000073,0.32622526,-0.10792604,-0.13677795,0.00000539,-0
 .05639144,-0.02979758,-0.00000986,0.01107876,-0.00388012,0.00000382,-0
 .00382631,0.00237449,-0.00000345,-0.00001923,-0.00383392,0.00000794,0.
 00994679,0.01510589,-0.00000985,0.00224833,0.00279234,0.00000229,-0.00
 092671,0.00252802,0.00000183,-0.00298240,-0.00158246,0.00000206,-0.002
 02075,-0.00099251,0.00000052,0.00263219,-0.00099828,-0.00000137,0.1481
 8679,0.15506208,0.00000431,-0.00003446,-0.02320296,-0.00001025,0.00001
 352,0.00005424,0.00000436,0.00000562,-0.00475302,0.00001726,-0.0000099
 6,0.01857501,-0.00002686,-0.00000574,-0.00463073,0.00001061,0.00002361
 ,-0.00002943,-0.00000772,0.00000061,-0.00307636,0.00000556,0.00000642,
 -0.00311220,0.00000016,0.00000003,0.00428225,0.00000101,0.00000105,-0.
 00711573,0.00000161,-0.00000138,0.00423339,-0.00000006,0.00000068,0.01
 877555\\0.00016444,0.00008901,0.,0.00008901,0.00009091,-0.00000006,0.0
 0002747,-0.00013190,0.00000019,0.00000557,-0.00000072,0.,-0.00009153,0
 .00009319,-0.00000019,0.00011807,0.00003550,0.00000006,-0.00004838,-0.
 00005547,0.00000001,-0.00007357,-0.00001426,-0.00000001,-0.00003803,0.
 00012122,-0.00000008,-0.00003055,-0.00001688,0.,0.00008206,-0.00009265
 ,0.00000008,-0.00020455,-0.00011793,0.\\\@


 IT IS A PROFOUNDLY ERRONEOUS TRUISM ... THAT WE SHOULD CULTIVATE
 THE HABIT OF THINKING OF WHAT WE ARE DOING.
 THE PRECISE OPPOSITE IS THE CASE.
 CIVILIZATION ADVANCES BY EXTENDING THE NUMBER OF IMPORTANT OPERATIONS
 WHICH WE CAN PERFORM WITHOUT THINKING ABOUT THEM.

                                    -- ALFRED NORTH WHITEHEAD
 Job cpu time:       0 days  0 hours  9 minutes 37.3 seconds.
 Elapsed time:       0 days  0 hours  9 minutes 38.1 seconds.
 File lengths (MBytes):  RWF=    156 Int=      0 D2E=      0 Chk=      7 Scr=      1
 Normal termination of Gaussian 16 at Thu Jan 30 14:40:39 2025.
