1 2 3 4 TtFB SP                                                         
SP        RPBE1PBE                                                    6-311++G(d,p)       
Number of atoms                            I               12
Info1-9                                    I   N=           9
          19          19           0           0           0         110
           1          18        -302
Full Title                                 C   N=           2
1 2 3 4 TtFB SP         
Route                                      C   N=           4
#p PBE1PBE/6-311++G(d,p) density=current nosymm 
Charge                                     I                0
Multiplicity                               I                1
Number of electrons                        I               74
Number of alpha electrons                  I               37
Number of beta electrons                   I               37
Number of basis functions                  I              234
Number of independent functions            I              234
Number of point charges in /Mol/           I                0
Number of translation vectors              I                0
Atomic numbers                             I   N=          12
           6           6           6           6           6           6
           1           1           9           9           9           9
Nuclear charges                            R   N=          12
  6.00000000E+00  6.00000000E+00  6.00000000E+00  6.00000000E+00  6.00000000E+00
  6.00000000E+00  1.00000000E+00  1.00000000E+00  9.00000000E+00  9.00000000E+00
  9.00000000E+00  9.00000000E+00
Current cartesian coordinates              R   N=          36
  2.22371409E+00  1.28396595E+00  3.77945225E-09  2.28991725E+00 -1.32911222E+00
  0.00000000E+00  5.76786743E-03 -2.60004172E+00 -1.88972612E-09 -2.28093131E+00
 -1.31704921E+00  1.88972612E-09 -2.24837834E+00  1.30489246E+00  0.00000000E+00
 -5.99378797E-03  2.64804671E+00  0.00000000E+00  4.05827730E+00 -2.35668522E+00
  0.00000000E+00 -1.22693908E-02  4.69324705E+00 -1.88972612E-09 -3.08875943E-02
 -5.11296116E+00  0.00000000E+00 -4.45428136E+00 -2.57091226E+00 -1.88972612E-09
 -4.44333198E+00  2.52896607E+00  0.00000000E+00  4.41261391E+00  2.54717639E+00
 -1.88972612E-09
Number of symbols in /Mol/                 I                0
Force Field                                I                0
Atom Types                                 C   N=          12
                                                            
                                                            
                        
Int Atom Types                             I   N=          12
           0           0           0           0           0           0
           0           0           0           0           0           0
MM charges                                 R   N=          12
  0.00000000E+00  0.00000000E+00  0.00000000E+00  0.00000000E+00  0.00000000E+00
  0.00000000E+00  0.00000000E+00  0.00000000E+00  0.00000000E+00  0.00000000E+00
  0.00000000E+00  0.00000000E+00
Integer atomic weights                     I   N=          12
          12          12          12          12          12          12
           1           1          19          19          19          19
Real atomic weights                        R   N=          12
  1.20000000E+01  1.20000000E+01  1.20000000E+01  1.20000000E+01  1.20000000E+01
  1.20000000E+01  1.00782504E+00  1.00782504E+00  1.89984032E+01  1.89984032E+01
  1.89984032E+01  1.89984032E+01
Atom fragment info                         I   N=          12
           0           0           0           0           0           0
           0           0           0           0           0           0
Atom residue num                           I   N=          12
           0           0           0           0           0           0
           0           0           0           0           0           0
Nuclear spins                              I   N=          12
           0           0           0           0           0           0
           1           1           1           1           1           1
Nuclear ZEff                               R   N=          12
 -3.60000000E+00 -3.60000000E+00 -3.60000000E+00 -3.60000000E+00 -3.60000000E+00
 -3.60000000E+00 -1.00000000E+00 -1.00000000E+00 -6.75000000E+00 -6.75000000E+00
 -6.75000000E+00 -6.75000000E+00
Nuclear ZNuc                               R   N=          12
  6.00000000E+00  6.00000000E+00  6.00000000E+00  6.00000000E+00  6.00000000E+00
  6.00000000E+00  1.00000000E+00  1.00000000E+00  9.00000000E+00  9.00000000E+00
  9.00000000E+00  9.00000000E+00
Nuclear QMom                               R   N=          12
  0.00000000E+00  0.00000000E+00  0.00000000E+00  0.00000000E+00  0.00000000E+00
  0.00000000E+00  0.00000000E+00  0.00000000E+00  0.00000000E+00  0.00000000E+00
  0.00000000E+00  0.00000000E+00
Nuclear GFac                               R   N=          12
  0.00000000E+00  0.00000000E+00  0.00000000E+00  0.00000000E+00  0.00000000E+00
  0.00000000E+00  2.79284600E+00  2.79284600E+00  2.62886700E+00  2.62886700E+00
  2.62886700E+00  2.62886700E+00
MicOpt                                     I   N=          12
          -1          -1          -1          -1          -1          -1
          -1          -1          -1          -1          -1          -1
Number of residues                         I                0
Number of secondary structures             I                0
SymInf integers                            I   N=          26
           1           2           1           1           1           1
           1          -1           0           0           0           0
           0           0           0           0           0           0
           0           0           0           0           0           0
           0           0
RotTr to input orientation                 R   N=          12
  5.00033817E-01 -8.66005879E-01 -1.22464680E-16 -8.66005879E-01 -5.00033817E-01
  0.00000000E+00 -6.12364813E-17  1.06055133E-16 -1.00000000E+00 -4.95843254E-01
 -2.86335200E-01 -1.78757877E-10
Number of contracted shells                I               70
Number of primitive shells                 I              144
Pure/Cartesian d shells                    I                0
Pure/Cartesian f shells                    I                0
Highest angular momentum                   I                2
Largest degree of contraction              I                6
Shell types                                I   N=          70
           0          -1          -1          -1          -1          -2
           0          -1          -1          -1          -1          -2
           0          -1          -1          -1          -1          -2
           0          -1          -1          -1          -1          -2
           0          -1          -1          -1          -1          -2
           0          -1          -1          -1          -1          -2
           0           0           0           0           1           0
           0           0           0           1           0          -1
          -1          -1          -1          -2           0          -1
          -1          -1          -1          -2           0          -1
          -1          -1          -1          -2           0          -1
          -1          -1          -1          -2
Number of primitives per shell             I   N=          70
           6           3           1           1           1           1
           6           3           1           1           1           1
           6           3           1           1           1           1
           6           3           1           1           1           1
           6           3           1           1           1           1
           6           3           1           1           1           1
           3           1           1           1           1           3
           1           1           1           1           6           3
           1           1           1           1           6           3
           1           1           1           1           6           3
           1           1           1           1           6           3
           1           1           1           1
Shell to atom map                          I   N=          70
           1           1           1           1           1           1
           2           2           2           2           2           2
           3           3           3           3           3           3
           4           4           4           4           4           4
           5           5           5           5           5           5
           6           6           6           6           6           6
           7           7           7           7           7           8
           8           8           8           8           9           9
           9           9           9           9          10          10
          10          10          10          10          11          11
          11          11          11          11          12          12
          12          12          12          12
Primitive exponents                        R   N=         144
  4.56324000E+03  6.82024000E+02  1.54973000E+02  4.44553000E+01  1.30290000E+01
  1.82773000E+00  2.09642000E+01  4.80331000E+00  1.45933000E+00  4.83456000E-01
  1.45585000E-01  4.38000000E-02  6.26000000E-01  4.56324000E+03  6.82024000E+02
  1.54973000E+02  4.44553000E+01  1.30290000E+01  1.82773000E+00  2.09642000E+01
  4.80331000E+00  1.45933000E+00  4.83456000E-01  1.45585000E-01  4.38000000E-02
  6.26000000E-01  4.56324000E+03  6.82024000E+02  1.54973000E+02  4.44553000E+01
  1.30290000E+01  1.82773000E+00  2.09642000E+01  4.80331000E+00  1.45933000E+00
  4.83456000E-01  1.45585000E-01  4.38000000E-02  6.26000000E-01  4.56324000E+03
  6.82024000E+02  1.54973000E+02  4.44553000E+01  1.30290000E+01  1.82773000E+00
  2.09642000E+01  4.80331000E+00  1.45933000E+00  4.83456000E-01  1.45585000E-01
  4.38000000E-02  6.26000000E-01  4.56324000E+03  6.82024000E+02  1.54973000E+02
  4.44553000E+01  1.30290000E+01  1.82773000E+00  2.09642000E+01  4.80331000E+00
  1.45933000E+00  4.83456000E-01  1.45585000E-01  4.38000000E-02  6.26000000E-01
  4.56324000E+03  6.82024000E+02  1.54973000E+02  4.44553000E+01  1.30290000E+01
  1.82773000E+00  2.09642000E+01  4.80331000E+00  1.45933000E+00  4.83456000E-01
  1.45585000E-01  4.38000000E-02  6.26000000E-01  3.38650000E+01  5.09479000E+00
  1.15879000E+00  3.25840000E-01  1.02741000E-01  3.60000000E-02  7.50000000E-01
  3.38650000E+01  5.09479000E+00  1.15879000E+00  3.25840000E-01  1.02741000E-01
  3.60000000E-02  7.50000000E-01  1.14271000E+04  1.72235000E+03  3.95746000E+02
  1.15139000E+02  3.36026000E+01  4.91901000E+00  5.54441000E+01  1.26323000E+01
  3.71756000E+00  1.16545000E+00  3.21892000E-01  1.07600000E-01  1.75000000E+00
  1.14271000E+04  1.72235000E+03  3.95746000E+02  1.15139000E+02  3.36026000E+01
  4.91901000E+00  5.54441000E+01  1.26323000E+01  3.71756000E+00  1.16545000E+00
  3.21892000E-01  1.07600000E-01  1.75000000E+00  1.14271000E+04  1.72235000E+03
  3.95746000E+02  1.15139000E+02  3.36026000E+01  4.91901000E+00  5.54441000E+01
  1.26323000E+01  3.71756000E+00  1.16545000E+00  3.21892000E-01  1.07600000E-01
  1.75000000E+00  1.14271000E+04  1.72235000E+03  3.95746000E+02  1.15139000E+02
  3.36026000E+01  4.91901000E+00  5.54441000E+01  1.26323000E+01  3.71756000E+00
  1.16545000E+00  3.21892000E-01  1.07600000E-01  1.75000000E+00
Contraction coefficients                   R   N=         144
  1.96665025E-03  1.52306019E-02  7.61269097E-02  2.60801033E-01  6.16462078E-01
  2.21006028E-01  1.14660081E-01  9.19999648E-01 -3.03068213E-03  1.00000000E+00
  1.00000000E+00  1.00000000E+00  1.00000000E+00  1.96665025E-03  1.52306019E-02
  7.61269097E-02  2.60801033E-01  6.16462078E-01  2.21006028E-01  1.14660081E-01
  9.19999648E-01 -3.03068213E-03  1.00000000E+00  1.00000000E+00  1.00000000E+00
  1.00000000E+00  1.96665025E-03  1.52306019E-02  7.61269097E-02  2.60801033E-01
  6.16462078E-01  2.21006028E-01  1.14660081E-01  9.19999648E-01 -3.03068213E-03
  1.00000000E+00  1.00000000E+00  1.00000000E+00  1.00000000E+00  1.96665025E-03
  1.52306019E-02  7.61269097E-02  2.60801033E-01  6.16462078E-01  2.21006028E-01
  1.14660081E-01  9.19999648E-01 -3.03068213E-03  1.00000000E+00  1.00000000E+00
  1.00000000E+00  1.00000000E+00  1.96665025E-03  1.52306019E-02  7.61269097E-02
  2.60801033E-01  6.16462078E-01  2.21006028E-01  1.14660081E-01  9.19999648E-01
 -3.03068213E-03  1.00000000E+00  1.00000000E+00  1.00000000E+00  1.00000000E+00
  1.96665025E-03  1.52306019E-02  7.61269097E-02  2.60801033E-01  6.16462078E-01
  2.21006028E-01  1.14660081E-01  9.19999648E-01 -3.03068213E-03  1.00000000E+00
  1.00000000E+00  1.00000000E+00  1.00000000E+00  2.54938145E-02  1.90373109E-01
  8.52161486E-01  1.00000000E+00  1.00000000E+00  1.00000000E+00  1.00000000E+00
  2.54938145E-02  1.90373109E-01  8.52161486E-01  1.00000000E+00  1.00000000E+00
  1.00000000E+00  1.00000000E+00  1.80093016E-03  1.37419012E-02  6.81334059E-02
  2.33325020E-01  5.89086051E-01  2.99505026E-01  1.14536016E-01  9.20512125E-01
 -3.37804046E-03  1.00000000E+00  1.00000000E+00  1.00000000E+00  1.00000000E+00
  1.80093016E-03  1.37419012E-02  6.81334059E-02  2.33325020E-01  5.89086051E-01
  2.99505026E-01  1.14536016E-01  9.20512125E-01 -3.37804046E-03  1.00000000E+00
  1.00000000E+00  1.00000000E+00  1.00000000E+00  1.80093016E-03  1.37419012E-02
  6.81334059E-02  2.33325020E-01  5.89086051E-01  2.99505026E-01  1.14536016E-01
  9.20512125E-01 -3.37804046E-03  1.00000000E+00  1.00000000E+00  1.00000000E+00
  1.00000000E+00  1.80093016E-03  1.37419012E-02  6.81334059E-02  2.33325020E-01
  5.89086051E-01  2.99505026E-01  1.14536016E-01  9.20512125E-01 -3.37804046E-03
  1.00000000E+00  1.00000000E+00  1.00000000E+00  1.00000000E+00
P(S=P) Contraction coefficients            R   N=         144
  0.00000000E+00  0.00000000E+00  0.00000000E+00  0.00000000E+00  0.00000000E+00
  0.00000000E+00  4.02486927E-02  2.37593957E-01  8.15853851E-01  1.00000000E+00
  1.00000000E+00  1.00000000E+00  0.00000000E+00  0.00000000E+00  0.00000000E+00
  0.00000000E+00  0.00000000E+00  0.00000000E+00  0.00000000E+00  4.02486927E-02
  2.37593957E-01  8.15853851E-01  1.00000000E+00  1.00000000E+00  1.00000000E+00
  0.00000000E+00  0.00000000E+00  0.00000000E+00  0.00000000E+00  0.00000000E+00
  0.00000000E+00  0.00000000E+00  4.02486927E-02  2.37593957E-01  8.15853851E-01
  1.00000000E+00  1.00000000E+00  1.00000000E+00  0.00000000E+00  0.00000000E+00
  0.00000000E+00  0.00000000E+00  0.00000000E+00  0.00000000E+00  0.00000000E+00
  4.02486927E-02  2.37593957E-01  8.15853851E-01  1.00000000E+00  1.00000000E+00
  1.00000000E+00  0.00000000E+00  0.00000000E+00  0.00000000E+00  0.00000000E+00
  0.00000000E+00  0.00000000E+00  0.00000000E+00  4.02486927E-02  2.37593957E-01
  8.15853851E-01  1.00000000E+00  1.00000000E+00  1.00000000E+00  0.00000000E+00
  0.00000000E+00  0.00000000E+00  0.00000000E+00  0.00000000E+00  0.00000000E+00
  0.00000000E+00  4.02486927E-02  2.37593957E-01  8.15853851E-01  1.00000000E+00
  1.00000000E+00  1.00000000E+00  0.00000000E+00  0.00000000E+00  0.00000000E+00
  0.00000000E+00  0.00000000E+00  0.00000000E+00  0.00000000E+00  0.00000000E+00
  0.00000000E+00  0.00000000E+00  0.00000000E+00  0.00000000E+00  0.00000000E+00
  0.00000000E+00  0.00000000E+00  0.00000000E+00  0.00000000E+00  0.00000000E+00
  0.00000000E+00  0.00000000E+00  0.00000000E+00  3.54608874E-02  2.37450915E-01
  8.20457708E-01  1.00000000E+00  1.00000000E+00  1.00000000E+00  0.00000000E+00
  0.00000000E+00  0.00000000E+00  0.00000000E+00  0.00000000E+00  0.00000000E+00
  0.00000000E+00  3.54608874E-02  2.37450915E-01  8.20457708E-01  1.00000000E+00
  1.00000000E+00  1.00000000E+00  0.00000000E+00  0.00000000E+00  0.00000000E+00
  0.00000000E+00  0.00000000E+00  0.00000000E+00  0.00000000E+00  3.54608874E-02
  2.37450915E-01  8.20457708E-01  1.00000000E+00  1.00000000E+00  1.00000000E+00
  0.00000000E+00  0.00000000E+00  0.00000000E+00  0.00000000E+00  0.00000000E+00
  0.00000000E+00  0.00000000E+00  3.54608874E-02  2.37450915E-01  8.20457708E-01
  1.00000000E+00  1.00000000E+00  1.00000000E+00  0.00000000E+00
Coordinates of each shell                  R   N=         210
  2.22371409E+00  1.28396595E+00  3.77945225E-09  2.22371409E+00  1.28396595E+00
  3.77945225E-09  2.22371409E+00  1.28396595E+00  3.77945225E-09  2.22371409E+00
  1.28396595E+00  3.77945225E-09  2.22371409E+00  1.28396595E+00  3.77945225E-09
  2.22371409E+00  1.28396595E+00  3.77945225E-09  2.28991725E+00 -1.32911222E+00
  0.00000000E+00  2.28991725E+00 -1.32911222E+00  0.00000000E+00  2.28991725E+00
 -1.32911222E+00  0.00000000E+00  2.28991725E+00 -1.32911222E+00  0.00000000E+00
  2.28991725E+00 -1.32911222E+00  0.00000000E+00  2.28991725E+00 -1.32911222E+00
  0.00000000E+00  5.76786743E-03 -2.60004172E+00 -1.88972612E-09  5.76786743E-03
 -2.60004172E+00 -1.88972612E-09  5.76786743E-03 -2.60004172E+00 -1.88972612E-09
  5.76786743E-03 -2.60004172E+00 -1.88972612E-09  5.76786743E-03 -2.60004172E+00
 -1.88972612E-09  5.76786743E-03 -2.60004172E+00 -1.88972612E-09 -2.28093131E+00
 -1.31704921E+00  1.88972612E-09 -2.28093131E+00 -1.31704921E+00  1.88972612E-09
 -2.28093131E+00 -1.31704921E+00  1.88972612E-09 -2.28093131E+00 -1.31704921E+00
  1.88972612E-09 -2.28093131E+00 -1.31704921E+00  1.88972612E-09 -2.28093131E+00
 -1.31704921E+00  1.88972612E-09 -2.24837834E+00  1.30489246E+00  0.00000000E+00
 -2.24837834E+00  1.30489246E+00  0.00000000E+00 -2.24837834E+00  1.30489246E+00
  0.00000000E+00 -2.24837834E+00  1.30489246E+00  0.00000000E+00 -2.24837834E+00
  1.30489246E+00  0.00000000E+00 -2.24837834E+00  1.30489246E+00  0.00000000E+00
 -5.99378797E-03  2.64804671E+00  0.00000000E+00 -5.99378797E-03  2.64804671E+00
  0.00000000E+00 -5.99378797E-03  2.64804671E+00  0.00000000E+00 -5.99378797E-03
  2.64804671E+00  0.00000000E+00 -5.99378797E-03  2.64804671E+00  0.00000000E+00
 -5.99378797E-03  2.64804671E+00  0.00000000E+00  4.05827730E+00 -2.35668522E+00
  0.00000000E+00  4.05827730E+00 -2.35668522E+00  0.00000000E+00  4.05827730E+00
 -2.35668522E+00  0.00000000E+00  4.05827730E+00 -2.35668522E+00  0.00000000E+00
  4.05827730E+00 -2.35668522E+00  0.00000000E+00 -1.22693908E-02  4.69324705E+00
 -1.88972612E-09 -1.22693908E-02  4.69324705E+00 -1.88972612E-09 -1.22693908E-02
  4.69324705E+00 -1.88972612E-09 -1.22693908E-02  4.69324705E+00 -1.88972612E-09
 -1.22693908E-02  4.69324705E+00 -1.88972612E-09 -3.08875943E-02 -5.11296116E+00
  0.00000000E+00 -3.08875943E-02 -5.11296116E+00  0.00000000E+00 -3.08875943E-02
 -5.11296116E+00  0.00000000E+00 -3.08875943E-02 -5.11296116E+00  0.00000000E+00
 -3.08875943E-02 -5.11296116E+00  0.00000000E+00 -3.08875943E-02 -5.11296116E+00
  0.00000000E+00 -4.45428136E+00 -2.57091226E+00 -1.88972612E-09 -4.45428136E+00
 -2.57091226E+00 -1.88972612E-09 -4.45428136E+00 -2.57091226E+00 -1.88972612E-09
 -4.45428136E+00 -2.57091226E+00 -1.88972612E-09 -4.45428136E+00 -2.57091226E+00
 -1.88972612E-09 -4.45428136E+00 -2.57091226E+00 -1.88972612E-09 -4.44333198E+00
  2.52896607E+00  0.00000000E+00 -4.44333198E+00  2.52896607E+00  0.00000000E+00
 -4.44333198E+00  2.52896607E+00  0.00000000E+00 -4.44333198E+00  2.52896607E+00
  0.00000000E+00 -4.44333198E+00  2.52896607E+00  0.00000000E+00 -4.44333198E+00
  2.52896607E+00  0.00000000E+00  4.41261391E+00  2.54717639E+00 -1.88972612E-09
  4.41261391E+00  2.54717639E+00 -1.88972612E-09  4.41261391E+00  2.54717639E+00
 -1.88972612E-09  4.41261391E+00  2.54717639E+00 -1.88972612E-09  4.41261391E+00
  2.54717639E+00 -1.88972612E-09  4.41261391E+00  2.54717639E+00 -1.88972612E-09
Num ILSW                                   I              100
ILSW                                       I   N=         100
           0           0           0           0           2           0
           0           0           0           0        1009          -1
           5           0           0           0           0           0
           0           0           0           0           0           0
           1           1           0           0           0           0
           0           0      100000           0          -1           0
           0           0           0           0           0           0
           0           0           0           1           0           0
           0 -2000000000           1           0           0           0
           0           0           4          52           0           0
           0           0          13           0           0           0
           0           0           0          12           0           1
           0           0           0           0           0           0
           0           0           0           0           0           0
           0           0           0           0           0           0
           0           0           0           0           0           0
           0           0           0           0
Num RLSW                                   I               52
RLSW                                       R   N=          52
  7.50000000E-01  7.50000000E-01  1.00000000E+00  1.00000000E+00  2.50000000E-01
  0.00000000E+00  0.00000000E+00  1.00000000E+00  0.00000000E+00  0.00000000E+00
  0.00000000E+00  0.00000000E+00  1.00000000E+00  0.00000000E+00  0.00000000E+00
  0.00000000E+00  0.00000000E+00  1.00000000E+00  0.00000000E+00  0.00000000E+00
  0.00000000E+00  0.00000000E+00  1.00000000E+00  0.00000000E+00  0.00000000E+00
  0.00000000E+00  0.00000000E+00  1.00000000E+00  0.00000000E+00  0.00000000E+00
  0.00000000E+00  0.00000000E+00  1.00000000E+00  0.00000000E+00  0.00000000E+00
  0.00000000E+00  0.00000000E+00  0.00000000E+00  1.00000000E+00  1.00000000E+00
  0.00000000E+00  1.00000000E+00  0.00000000E+00  0.00000000E+00  0.00000000E+00
  0.00000000E+00  0.00000000E+00  0.00000000E+00  0.00000000E+00  0.00000000E+00
  0.00000000E+00  0.00000000E+00
MxBond                                     I                3
NBond                                      I   N=          12
           3           3           3           3           3           3
           1           1           1           1           1           1
IBond                                      I   N=          36
           2           6          12           1           3           7
           2           4           9           3           5          10
           4           6          11           1           5           8
           2           0           0           6           0           0
           3           0           0           4           0           0
           5           0           0           1           0           0
RBond                                      R   N=          36
  1.50000000E+00  1.50000000E+00  1.00000000E+00  1.50000000E+00  1.50000000E+00
  1.00000000E+00  1.50000000E+00  1.50000000E+00  1.00000000E+00  1.50000000E+00
  1.50000000E+00  1.00000000E+00  1.50000000E+00  1.50000000E+00  1.00000000E+00
  1.50000000E+00  1.50000000E+00  1.00000000E+00  1.00000000E+00  0.00000000E+00
  0.00000000E+00  1.00000000E+00  0.00000000E+00  0.00000000E+00  1.00000000E+00
  0.00000000E+00  0.00000000E+00  1.00000000E+00  0.00000000E+00  0.00000000E+00
  1.00000000E+00  0.00000000E+00  0.00000000E+00  1.00000000E+00  0.00000000E+00
  0.00000000E+00
Virial Ratio                               R      2.002733401489383E+00
SCF Energy                                 R     -6.287192320963437E+02
Total Energy                               R     -6.287192320963437E+02
RMS Density                                R      7.188709049919942E-09
Job Status                                 I                1
Nuclear derivative order                   I                0
External E-field                           R   N=          35
  0.00000000E+00  0.00000000E+00  0.00000000E+00  0.00000000E+00  0.00000000E+00
  0.00000000E+00  0.00000000E+00  0.00000000E+00  0.00000000E+00  0.00000000E+00
  0.00000000E+00  0.00000000E+00  0.00000000E+00  0.00000000E+00  0.00000000E+00
  0.00000000E+00  0.00000000E+00  0.00000000E+00  0.00000000E+00  0.00000000E+00
  0.00000000E+00  0.00000000E+00  0.00000000E+00  0.00000000E+00  0.00000000E+00
  0.00000000E+00  0.00000000E+00  0.00000000E+00  0.00000000E+00  0.00000000E+00
  0.00000000E+00  0.00000000E+00  0.00000000E+00  0.00000000E+00  0.00000000E+00
IOpCl                                      I                0
IROHF                                      I                0
Alpha Orbital Energies                     R   N=         234
 -2.48159170E+01 -2.48158972E+01 -2.48148541E+01 -2.48083560E+01 -1.03540801E+01
 -1.03540621E+01 -1.03495454E+01 -1.03450255E+01 -1.02669754E+01 -1.02669600E+01
 -1.31180416E+00 -1.30273951E+00 -1.29417755E+00 -1.29211317E+00 -9.39716432E-01
 -8.24265753E-01 -8.16466674E-01 -7.04085528E-01 -6.91010189E-01 -6.29810908E-01
 -6.09160736E-01 -6.01715091E-01 -5.63528359E-01 -5.55186126E-01 -5.49201013E-01
 -5.17734721E-01 -5.15695577E-01 -5.14791419E-01 -4.98140428E-01 -4.88707827E-01
 -4.72415257E-01 -4.44231080E-01 -4.23089079E-01 -4.12232401E-01 -3.90746871E-01
 -2.97987349E-01 -2.83289452E-01 -3.84816991E-02 -2.60427067E-02 -8.74397244E-03
  8.72826432E-03  1.83260299E-02  4.06761822E-02  5.30233663E-02  5.44098026E-02
  7.44559785E-02  7.86077262E-02  9.12695520E-02  9.16983285E-02  1.03769341E-01
  1.15887075E-01  1.23603339E-01  1.27229525E-01  1.29741471E-01  1.32272068E-01
  1.33304281E-01  1.35227453E-01  1.45442327E-01  1.48751889E-01  1.61711993E-01
  1.69720657E-01  1.79858572E-01  1.82710360E-01  1.93405187E-01  2.03029707E-01
  2.06633620E-01  2.17904966E-01  2.44708526E-01  2.59485030E-01  2.60451257E-01
  2.62905876E-01  2.70719019E-01  2.86727215E-01  3.01027340E-01  3.30684976E-01
  3.33588286E-01  3.45852629E-01  3.46998199E-01  3.49027234E-01  3.56602826E-01
  3.67455507E-01  3.79341820E-01  3.93454403E-01  3.99330086E-01  4.05117116E-01
  4.06359280E-01  4.25912973E-01  4.36158801E-01  4.41529384E-01  4.47303817E-01
  4.94052889E-01  5.00356951E-01  5.14199475E-01  5.28135471E-01  5.54128559E-01
  5.61319152E-01  5.63233151E-01  5.67944514E-01  5.73714952E-01  6.07322464E-01
  6.21599914E-01  6.43159679E-01  6.79632478E-01  6.96275554E-01  7.07283579E-01
  7.17537260E-01  7.53816831E-01  7.88883906E-01  8.11009687E-01  8.33310559E-01
  8.37284342E-01  8.99588218E-01  8.99705442E-01  9.25145253E-01  9.43634042E-01
  9.44492577E-01  9.71343228E-01  1.00657536E+00  1.02077871E+00  1.02625583E+00
  1.05727750E+00  1.06329019E+00  1.12755630E+00  1.16937892E+00  1.18517898E+00
  1.24083996E+00  1.31769837E+00  1.38060167E+00  1.41040881E+00  1.41185363E+00
  1.42844729E+00  1.43350479E+00  1.43453337E+00  1.44440838E+00  1.45052001E+00
  1.47003199E+00  1.52739984E+00  1.53000840E+00  1.53231412E+00  1.53945749E+00
  1.54572220E+00  1.57836580E+00  1.58081201E+00  1.58096005E+00  1.59453913E+00
  1.65528126E+00  1.75169780E+00  1.77870256E+00  1.80568773E+00  1.82546573E+00
  1.86183303E+00  1.86919581E+00  1.92615396E+00  1.92679056E+00  1.94452568E+00
  1.97550110E+00  2.04110263E+00  2.04772811E+00  2.06280073E+00  2.08445654E+00
  2.09123844E+00  2.14682100E+00  2.16490312E+00  2.23795030E+00  2.27695157E+00
  2.27722551E+00  2.35877508E+00  2.51879592E+00  2.52736104E+00  2.59563612E+00
  2.66941514E+00  2.70740155E+00  2.71762093E+00  2.73017752E+00  2.73083527E+00
  2.75786294E+00  2.84348102E+00  2.86205973E+00  3.06547969E+00  3.09552765E+00
  3.13092943E+00  3.13967999E+00  3.19199207E+00  3.23903701E+00  3.35583161E+00
  3.40324379E+00  3.62492271E+00  3.62524135E+00  3.73947719E+00  3.76401180E+00
  3.77427237E+00  3.77949164E+00  3.78544346E+00  3.78629095E+00  3.83861074E+00
  3.85458226E+00  3.87287103E+00  3.95300126E+00  3.99055786E+00  3.99100155E+00
  4.00349674E+00  4.02443878E+00  4.03654092E+00  4.12593883E+00  4.14638374E+00
  4.14823709E+00  4.22547128E+00  4.75951261E+00  4.84914512E+00  4.88386587E+00
  4.88744385E+00  4.98020287E+00  6.30973954E+00  6.34581242E+00  6.34960342E+00
  6.38375029E+00  6.40879322E+00  6.47137422E+00  6.47228952E+00  6.54430696E+00
  6.63942727E+00  6.81074493E+00  6.82695155E+00  6.90156648E+00  2.35322825E+01
  2.39378019E+01  2.39608531E+01  2.41000684E+01  2.41656833E+01  2.42529513E+01
  6.68970365E+01  6.69324792E+01  6.69367117E+01  6.69703142E+01
Alpha MO coefficients                      R   N=       54756
 -1.03297679E-06  3.56167895E-06 -2.80561025E-05 -4.75606169E-05 -1.89536527E-14
  9.07443375E-05  1.21667025E-04  2.61501977E-04  1.88841188E-13 -7.00033569E-03
  3.26199269E-04  2.08362128E-03  9.81969698E-12 -3.32841242E-02  5.44691961E-03
  3.20963069E-03  9.42621193E-12  2.63746261E-05  3.27937732E-13 -3.78995728E-13
  6.87325837E-05 -5.15884184E-05 -6.37711157E-06  2.80649615E-05  1.70228621E-05
 -4.29428025E-05 -1.47232306E-13 -2.94855568E-04 -6.96489295E-05  1.78136256E-04
  6.38659813E-13  7.58457155E-03 -4.21835957E-03  4.29058818E-03 -6.19830324E-13
  3.78341105E-02 -1.02021696E-02  4.66889840E-03  1.37731548E-11 -4.84793316E-05
  4.10167393E-13 -1.18132534E-14  3.69381990E-05 -1.01265453E-04  2.43281266E-05
 -1.03862313E-04 -3.65771561E-06 -1.48474584E-04 -1.33048915E-13  7.21559492E-04
  8.82700486E-06 -1.03867874E-04  1.02701886E-12 -4.56373121E-03 -7.48172469E-05
 -1.01130621E-02 -5.01893324E-12 -4.79753199E-02  2.49821520E-03 -6.50188761E-03
 -2.99548893E-11 -1.37096867E-04 -2.45081412E-13 -1.84725376E-12  3.89101339E-06
 -7.87762026E-06 -6.85857880E-06  2.99790506E-05  5.32900484E-07 -4.14612168E-05
 -1.44347127E-13 -2.84471455E-04 -3.89922238E-05  1.75088496E-04  6.31449021E-13