 Entering Gaussian System, Link 0=g16
 Initial command:
 /sw/cluster/pub/apps//g16/l1.exe "/data/natrosa/28477/Gau-5739.inp" -scrdir="/data/natrosa/28477/"
 Entering Link 1 = /sw/cluster/pub/apps//g16/l1.exe PID=      5740.
  
 Copyright (c) 1988,1990,1992,1993,1995,1998,2003,2009,2016,
            Gaussian, Inc.  All Rights Reserved.
  
 This is part of the Gaussian(R) 16 program.  It is based on
 the Gaussian(R) 09 system (copyright 2009, Gaussian, Inc.),
 the Gaussian(R) 03 system (copyright 2003, Gaussian, Inc.),
 the Gaussian(R) 98 system (copyright 1998, Gaussian, Inc.),
 the Gaussian(R) 94 system (copyright 1995, Gaussian, Inc.),
 the Gaussian 92(TM) system (copyright 1992, Gaussian, Inc.),
 the Gaussian 90(TM) system (copyright 1990, Gaussian, Inc.),
 the Gaussian 88(TM) system (copyright 1988, Gaussian, Inc.),
 the Gaussian 86(TM) system (copyright 1986, Carnegie Mellon
 University), and the Gaussian 82(TM) system (copyright 1983,
 Carnegie Mellon University). Gaussian is a federally registered
 trademark of Gaussian, Inc.
  
 This software contains proprietary and confidential information,
 including trade secrets, belonging to Gaussian, Inc.
  
 This software is provided under written license and may be
 used, copied, transmitted, or stored only in accord with that
 written license.
  
 The following legend is applicable only to US Government
 contracts under FAR:
  
                    RESTRICTED RIGHTS LEGEND
  
 Use, reproduction and disclosure by the US Government is
 subject to restrictions as set forth in subparagraphs (a)
 and (c) of the Commercial Computer Software - Restricted
 Rights clause in FAR 52.227-19.
  
 Gaussian, Inc.
 340 Quinnipiac St., Bldg. 40, Wallingford CT 06492
  
  
 ---------------------------------------------------------------
 Warning -- This program may not be used in any manner that
 competes with the business of Gaussian, Inc. or will provide
 assistance to any competitor of Gaussian, Inc.  The licensee
 of this program is prohibited from giving any competitor of
 Gaussian, Inc. access to this program.  By using this program,
 the user acknowledges that Gaussian, Inc. is engaged in the
 business of creating and licensing software in the field of
 computational chemistry and represents and warrants to the
 licensee that it is not a competitor of Gaussian, Inc. and that
 it will not use this program in any manner prohibited above.
 ---------------------------------------------------------------
  

 Cite this work as:
 Gaussian 16, Revision A.03,
 M. J. Frisch, G. W. Trucks, H. B. Schlegel, G. E. Scuseria, 
 M. A. Robb, J. R. Cheeseman, G. Scalmani, V. Barone, 
 G. A. Petersson, H. Nakatsuji, X. Li, M. Caricato, A. V. Marenich, 
 J. Bloino, B. G. Janesko, R. Gomperts, B. Mennucci, H. P. Hratchian, 
 J. V. Ortiz, A. F. Izmaylov, J. L. Sonnenberg, D. Williams-Young, 
 F. Ding, F. Lipparini, F. Egidi, J. Goings, B. Peng, A. Petrone, 
 T. Henderson, D. Ranasinghe, V. G. Zakrzewski, J. Gao, N. Rega, 
 G. Zheng, W. Liang, M. Hada, M. Ehara, K. Toyota, R. Fukuda, 
 J. Hasegawa, M. Ishida, T. Nakajima, Y. Honda, O. Kitao, H. Nakai, 
 T. Vreven, K. Throssell, J. A. Montgomery, Jr., J. E. Peralta, 
 F. Ogliaro, M. J. Bearpark, J. J. Heyd, E. N. Brothers, K. N. Kudin, 
 V. N. Staroverov, T. A. Keith, R. Kobayashi, J. Normand, 
 K. Raghavachari, A. P. Rendell, J. C. Burant, S. S. Iyengar, 
 J. Tomasi, M. Cossi, J. M. Millam, M. Klene, C. Adamo, R. Cammi, 
 J. W. Ochterski, R. L. Martin, K. Morokuma, O. Farkas, 
 J. B. Foresman, and D. J. Fox, Gaussian, Inc., Wallingford CT, 2016.
 
 ******************************************
 Gaussian 16:  ES64L-G16RevA.03 25-Dec-2016
                30-Jan-2025 
 ******************************************
 %chk=1-2-3-5-TtFB-CAT.chk
 --------------------------------------------------------
 #p opt freq PBE1PBE/6-311++G(d,p) density=current nosymm
 --------------------------------------------------------
 1/18=20,19=15,26=3,38=1/1,3;
 2/9=110,12=2,15=1,17=6,18=5,40=1/2;
 3/5=4,6=6,7=1111,11=2,25=1,30=1,71=1,74=-13/1,2,3;
 4//1;
 5/5=2,38=5/2;
 6/7=2,8=2,9=2,10=2,22=-1,28=1/1;
 7/30=1/1,2,3,16;
 1/18=20,19=15,26=3/3(2);
 2/9=110,15=1/2;
 99//99;
 2/9=110,15=1/2;
 3/5=4,6=6,7=1111,11=2,25=1,30=1,71=1,74=-13/1,2,3;
 4/5=5,16=3,69=1/1;
 5/5=2,38=5/2;
 7/30=1/1,2,3,16;
 1/18=20,19=15,26=3/3(-5);
 2/9=110,15=1/2;
 6/7=2,8=2,9=2,10=2,19=2,22=-1,28=1/1;
 99/9=1/99;
 Leave Link    1 at Thu Jan 30 14:22:48 2025, MaxMem=           0 cpu:               0.0 elap:               0.0
 (Enter /sw/cluster/pub/apps//g16/l101.exe)
 ---------------
 1 2 3 4 TtFB SP
 ---------------
 Symbolic Z-matrix:
 Charge =  1 Multiplicity = 2
 C                     1.17674   0.67945   0. 
 C                     1.21177  -0.70334   0. 
 C                     0.00305  -1.37588  0. 
 C                    -1.20702  -0.69695   0. 
 C                    -1.18979   0.69052   0. 
 C                    -0.00317   1.40129   0. 
 H                     2.14755  -1.2471    0. 
 H                    -0.00649   2.48356  0. 
 F                    -0.01635  -2.70566   0. 
 F                    -2.3571   -1.36047  0. 
 F                    -2.35131   1.33827   0. 
 F                     2.33505   1.34791  0. 
 
 ITRead=  0  0  0  0  0  0  0  0  0  0  0  0
 MicOpt= -1 -1 -1 -1 -1 -1 -1 -1 -1 -1 -1 -1
 NAtoms=     12 NQM=       12 NQMF=       0 NMMI=      0 NMMIF=      0
                NMic=       0 NMicF=      0.
                    Isotopes and Nuclear Properties:
 (Nuclear quadrupole moments (NQMom) in fm**2, nuclear magnetic moments (NMagM)
  in nuclear magnetons)

  Atom         1           2           3           4           5           6           7           8           9          10
 IAtWgt=          12          12          12          12          12          12           1           1          19          19
 AtmWgt=  12.0000000  12.0000000  12.0000000  12.0000000  12.0000000  12.0000000   1.0078250   1.0078250  18.9984032  18.9984032
 NucSpn=           0           0           0           0           0           0           1           1           1           1
 AtZEff=  -0.0000000  -0.0000000  -0.0000000  -0.0000000  -0.0000000  -0.0000000  -0.0000000  -0.0000000  -0.0000000  -0.0000000
 NQMom=    0.0000000   0.0000000   0.0000000   0.0000000   0.0000000   0.0000000   0.0000000   0.0000000   0.0000000   0.0000000
 NMagM=    0.0000000   0.0000000   0.0000000   0.0000000   0.0000000   0.0000000   2.7928460   2.7928460   2.6288670   2.6288670
 AtZNuc=   6.0000000   6.0000000   6.0000000   6.0000000   6.0000000   6.0000000   1.0000000   1.0000000   9.0000000   9.0000000

  Atom        11          12
 IAtWgt=          19          19
 AtmWgt=  18.9984032  18.9984032
 NucSpn=           1           1
 AtZEff=  -0.0000000  -0.0000000
 NQMom=    0.0000000   0.0000000
 NMagM=    2.6288670   2.6288670
 AtZNuc=   9.0000000   9.0000000
 Leave Link  101 at Thu Jan 30 14:22:48 2025, MaxMem=   104857600 cpu:               0.0 elap:               0.0
 (Enter /sw/cluster/pub/apps//g16/l103.exe)

 GradGradGradGradGradGradGradGradGradGradGradGradGradGradGradGradGradGrad
 Berny optimization.
 Initialization pass.
                           ----------------------------
                           !    Initial Parameters    !
                           ! (Angstroms and Degrees)  !
 --------------------------                            --------------------------
 ! Name  Definition              Value          Derivative Info.                !
 --------------------------------------------------------------------------------
 ! R1    R(1,2)                  1.3832         estimate D2E/DX2                !
 ! R2    R(1,6)                  1.3832         estimate D2E/DX2                !
 ! R3    R(1,12)                 1.3374         estimate D2E/DX2                !
 ! R4    R(2,3)                  1.3832         estimate D2E/DX2                !
 ! R5    R(2,7)                  1.0823         estimate D2E/DX2                !
 ! R6    R(3,4)                  1.3875         estimate D2E/DX2                !
 ! R7    R(3,9)                  1.3299         estimate D2E/DX2                !
 ! R8    R(4,5)                  1.3876         estimate D2E/DX2                !
 ! R9    R(4,10)                 1.3278         estimate D2E/DX2                !
 ! R10   R(5,6)                  1.3832         estimate D2E/DX2                !
 ! R11   R(5,11)                 1.3299         estimate D2E/DX2                !
 ! R12   R(6,8)                  1.0823         estimate D2E/DX2                !
 ! A1    A(2,1,6)              122.9086         estimate D2E/DX2                !
 ! A2    A(2,1,12)             118.5379         estimate D2E/DX2                !
 ! A3    A(6,1,12)             118.5536         estimate D2E/DX2                !
 ! A4    A(1,2,3)              117.6408         estimate D2E/DX2                !
 ! A5    A(1,2,7)              121.6117         estimate D2E/DX2                !
 ! A6    A(3,2,7)              120.7475         estimate D2E/DX2                !
 ! A7    A(2,3,4)              121.6125         estimate D2E/DX2                !
 ! A8    A(2,3,9)              119.9278         estimate D2E/DX2                !
 ! A9    A(4,3,9)              118.4597         estimate D2E/DX2                !
 ! A10   A(3,4,5)              118.584          estimate D2E/DX2                !
 ! A11   A(3,4,10)             120.7229         estimate D2E/DX2                !
 ! A12   A(5,4,10)             120.6931         estimate D2E/DX2                !
 ! A13   A(4,5,6)              121.6323         estimate D2E/DX2                !
 ! A14   A(4,5,11)             118.436          estimate D2E/DX2                !
 ! A15   A(6,5,11)             119.9317         estimate D2E/DX2                !
 ! A16   A(1,6,5)              117.6218         estimate D2E/DX2                !
 ! A17   A(1,6,8)              121.6331         estimate D2E/DX2                !
 ! A18   A(5,6,8)              120.7452         estimate D2E/DX2                !
 ! D1    D(6,1,2,3)              0.0            estimate D2E/DX2                !
 ! D2    D(6,1,2,7)            180.0            estimate D2E/DX2                !
 ! D3    D(12,1,2,3)           180.0            estimate D2E/DX2                !
 ! D4    D(12,1,2,7)             0.0            estimate D2E/DX2                !
 ! D5    D(2,1,6,5)              0.0            estimate D2E/DX2                !
 ! D6    D(2,1,6,8)            180.0            estimate D2E/DX2                !
 ! D7    D(12,1,6,5)           180.0            estimate D2E/DX2                !
 ! D8    D(12,1,6,8)             0.0            estimate D2E/DX2                !
 ! D9    D(1,2,3,4)              0.0            estimate D2E/DX2                !
 ! D10   D(1,2,3,9)            180.0            estimate D2E/DX2                !
 ! D11   D(7,2,3,4)            180.0            estimate D2E/DX2                !
 ! D12   D(7,2,3,9)              0.0            estimate D2E/DX2                !
 ! D13   D(2,3,4,5)              0.0            estimate D2E/DX2                !
 ! D14   D(2,3,4,10)           180.0            estimate D2E/DX2                !
 ! D15   D(9,3,4,5)            180.0            estimate D2E/DX2                !
 ! D16   D(9,3,4,10)             0.0            estimate D2E/DX2                !
 ! D17   D(3,4,5,6)              0.0            estimate D2E/DX2                !
 ! D18   D(3,4,5,11)           180.0            estimate D2E/DX2                !
 ! D19   D(10,4,5,6)           180.0            estimate D2E/DX2                !
 ! D20   D(10,4,5,11)            0.0            estimate D2E/DX2                !
 ! D21   D(4,5,6,1)              0.0            estimate D2E/DX2                !
 ! D22   D(4,5,6,8)            180.0            estimate D2E/DX2                !
 ! D23   D(11,5,6,1)           180.0            estimate D2E/DX2                !
 ! D24   D(11,5,6,8)             0.0            estimate D2E/DX2                !
 --------------------------------------------------------------------------------
 Trust Radius=3.00D-01 FncErr=1.00D-07 GrdErr=1.00D-06 EigMax=2.50D+02 EigMin=1.00D-04
 Number of steps in this run=     64 maximum allowed number of steps=    100.
 GradGradGradGradGradGradGradGradGradGradGradGradGradGradGradGradGradGrad

 Leave Link  103 at Thu Jan 30 14:22:48 2025, MaxMem=   104857600 cpu:               0.0 elap:               0.0
 (Enter /sw/cluster/pub/apps//g16/l202.exe)
                          Input orientation:                          
 ---------------------------------------------------------------------
 Center     Atomic      Atomic             Coordinates (Angstroms)
 Number     Number       Type             X           Y           Z
 ---------------------------------------------------------------------
      1          6           0        1.176739    0.679446    0.000000
      2          6           0        1.211772   -0.703336    0.000000
      3          6           0        0.003052   -1.375883   -0.000000
      4          6           0       -1.207017   -0.696952    0.000000
      5          6           0       -1.189791    0.690519    0.000000
      6          6           0       -0.003172    1.401286    0.000000
      7          1           0        2.147548   -1.247104    0.000000
      8          1           0       -0.006493    2.483559   -0.000000
      9          9           0       -0.016345   -2.705663    0.000000
     10          9           0       -2.357104   -1.360468   -0.000000
     11          9           0       -2.351310    1.338271    0.000000
     12          9           0        2.335055    1.347908   -0.000000
 ---------------------------------------------------------------------
                    Distance matrix (angstroms):
                    1          2          3          4          5
     1  C    0.000000
     2  C    1.383225   0.000000
     3  C    2.366836   1.383229   0.000000
     4  C    2.752592   2.418797   1.387521   0.000000
     5  C    2.366555   2.776749   2.385978   1.387579   0.000000
     6  C    1.383200   2.430128   2.777176   2.419059   1.383204
     7  H    2.157328   1.082294   2.148359   3.399378   3.859043
     8  H    2.157513   3.411813   3.859454   3.399546   2.148299
     9  F    3.589207   2.348954   1.329921   2.335084   3.593192
    10  F    4.080355   3.628870   2.360207   1.327763   2.359909
    11  F    3.589036   4.106545   3.593001   2.334854   1.329929
    12  F    1.337362   2.338667   3.585704   4.089954   3.585623
                    6          7          8          9         10
     6  C    0.000000
     7  H    3.411681   0.000000
     8  H    1.082279   4.307870   0.000000
     9  F    4.106970   2.609564   5.189231   0.000000
    10  F    3.628813   4.506078   4.505765   2.699759   0.000000
    11  F    2.348984   5.188823   2.609570   4.669632   2.698746
    12  F    2.338836   2.601777   2.602412   4.686204   5.417717
                   11         12
    11  F    0.000000
    12  F    4.686375   0.000000
 Symmetry turned off by external request.
 Stoichiometry    C6H2F4(1+,2)
 Framework group  CS[SG(C6H2F4)]
 Deg. of freedom    21
 Full point group                 CS      NOp   2
 Rotational constants (GHZ):           1.7665873           1.2489631           0.7316748
 Leave Link  202 at Thu Jan 30 14:22:48 2025, MaxMem=   104857600 cpu:               0.0 elap:               0.0
 (Enter /sw/cluster/pub/apps//g16/l301.exe)
 Standard basis: 6-311++G(d,p) (5D, 7F)
 Ernie: Thresh=  0.10000D-02 Tol=  0.10000D-05 Strict=F.
   234 basis functions,   378 primitive gaussians,   244 cartesian basis functions
    37 alpha electrons       36 beta electrons
       nuclear repulsion energy       521.2759806058 Hartrees.
 IExCor= 1009 DFT=T Ex+Corr=PBE1PBE ExCW=0 ScaHFX=  0.250000
 ScaDFX=  0.750000  0.750000  1.000000  1.000000 ScalE2=  1.000000  1.000000
 IRadAn=      5 IRanWt=     -1 IRanGd=            0 ICorTp=0 IEmpDi=  4
 NAtoms=   12 NActive=   12 NUniq=   12 SFac= 1.00D+00 NAtFMM=   60 NAOKFM=F Big=F
 Integral buffers will be    131072 words long.
 Raffenetti 2 integral format.
 Two-electron integral symmetry is turned off.
 Leave Link  301 at Thu Jan 30 14:22:48 2025, MaxMem=   104857600 cpu:               0.0 elap:               0.0
 (Enter /sw/cluster/pub/apps//g16/l302.exe)
 NPDir=0 NMtPBC=     1 NCelOv=     1 NCel=       1 NClECP=     1 NCelD=      1
         NCelK=      1 NCelE2=     1 NClLst=     1 CellRange=     0.0.
 One-electron integrals computed using PRISM.
 NBasis=   234 RedAO= T EigKep=  2.28D-06  NBF=   234
 NBsUse=   234 1.00D-06 EigRej= -1.00D+00 NBFU=   234
 Precomputing XC quadrature grid using
 IXCGrd= 4 IRadAn=           5 IRanWt=          -1 IRanGd=           0 AccXCQ= 0.00D+00.
 Generated NRdTot=       0 NPtTot=           0 NUsed=           0 NTot=          32
 NSgBfM=   244   244   244   244   244 MxSgAt=    12 MxSgA2=    12.
 Leave Link  302 at Thu Jan 30 14:22:49 2025, MaxMem=   104857600 cpu:               0.1 elap:               0.1
 (Enter /sw/cluster/pub/apps//g16/l303.exe)
 DipDrv:  MaxL=1.
 Leave Link  303 at Thu Jan 30 14:22:49 2025, MaxMem=   104857600 cpu:               0.0 elap:               0.0
 (Enter /sw/cluster/pub/apps//g16/l401.exe)
 ExpMin= 3.60D-02 ExpMax= 1.14D+04 ExpMxC= 1.72D+03 IAcc=3 IRadAn=         5 AccDes= 0.00D+00
 Harris functional with IExCor= 1009 and IRadAn=       5 diagonalized for initial guess.
 HarFok:  IExCor= 1009 AccDes= 0.00D+00 IRadAn=         5 IDoV= 1 UseB2=F ITyADJ=14
 ICtDFT=  3500011 ScaDFX=  1.000000  1.000000  1.000000  1.000000
 FoFCou: FMM=F IPFlag=           0 FMFlag=      100000 FMFlg1=           0
         NFxFlg=           0 DoJE=T BraDBF=F KetDBF=T FulRan=T
         wScrn=  0.000000 ICntrl=       500 IOpCl=  0 I1Cent=   200000004 NGrid=           0
         NMat0=    1 NMatS0=      1 NMatT0=    0 NMatD0=    1 NMtDS0=    0 NMtDT0=    0
 Symmetry not used in FoFCou.
 Harris En= -628.463255670262    
 JPrj=0 DoOrth=F DoCkMO=F.
 Initial guess <Sx>= 0.0000 <Sy>= 0.0000 <Sz>= 0.5000 <S**2>= 0.7500 S= 0.5000
 Leave Link  401 at Thu Jan 30 14:22:50 2025, MaxMem=   104857600 cpu:               1.3 elap:               1.3
 (Enter /sw/cluster/pub/apps//g16/l502.exe)
 Two-electron integral symmetry not used.
 UHF open shell SCF:
 Using DIIS extrapolation, IDIIS=  1040.
 NGot=   104857600 LenX=   104735324 LenY=   104675347
 Requested convergence on RMS density matrix=1.00D-08 within 128 cycles.
 Requested convergence on MAX density matrix=1.00D-06.
 Requested convergence on             energy=1.00D-06.
 No special actions if energy rises.
 Fock matrices will be formed incrementally for  20 cycles.

 Cycle   1  Pass 1  IDiag  1:
 FoFJK:  IHMeth= 1 ICntrl=       0 DoSepK=F KAlg= 0 I1Cent=           0 FoldK=F
 IRaf= 930000000 NMat=       1 IRICut=       1 DoRegI=T DoRafI=F ISym2E= 0 IDoP0=0 IntGTp=1.
 FoFCou: FMM=F IPFlag=           0 FMFlag=      100000 FMFlg1=           0
         NFxFlg=           0 DoJE=F BraDBF=F KetDBF=F FulRan=T
         wScrn=  0.000000 ICntrl=         0 IOpCl=  1 I1Cent=           0 NGrid=           0
         NMat0=    1 NMatS0=      1 NMatT0=    0 NMatD0=    1 NMtDS0=    0 NMtDT0=    0
 Symmetry not used in FoFCou.
 E= -628.250778984632    
 DIIS: error= 2.62D-02 at cycle   1 NSaved=   1.
 NSaved= 1 IEnMin= 1 EnMin= -628.250778984632     IErMin= 1 ErrMin= 2.62D-02
 ErrMax= 2.62D-02  0.00D+00 EMaxC= 1.00D-01 BMatC= 5.88D-01 BMatP= 5.88D-01
 IDIUse=3 WtCom= 7.38D-01 WtEn= 2.62D-01
 Coeff-Com:  0.100D+01
 Coeff-En:   0.100D+01
 Coeff:      0.100D+01
 Gap=     0.301 Goal=   None    Shift=    0.000
 Gap=    -0.011 Goal=   None    Shift=    0.000
 GapD=   -0.011 DampG=0.250 DampE=0.500 DampFc=0.2500 IDamp=-1.
 Damping current iteration by 2.50D-01
 RMSDP=1.31D-02 MaxDP=4.25D-01              OVMax= 4.01D-01

 Cycle   2  Pass 1  IDiag  1:
 RMSU=  3.15D-03    CP:  1.01D+00
 E= -628.289001621323     Delta-E=       -0.038222636691 Rises=F Damp=T
 DIIS: error= 1.11D-02 at cycle   2 NSaved=   2.
 NSaved= 2 IEnMin= 2 EnMin= -628.289001621323     IErMin= 2 ErrMin= 1.11D-02
 ErrMax= 1.11D-02  0.00D+00 EMaxC= 1.00D-01 BMatC= 1.71D-01 BMatP= 5.88D-01
 IDIUse=3 WtCom= 8.89D-01 WtEn= 1.11D-01
 Coeff-Com: -0.724D+00 0.172D+01
 Coeff-En:   0.000D+00 0.100D+01
 Coeff:     -0.644D+00 0.164D+01
 Gap=     0.247 Goal=   None    Shift=    0.000
 Gap=     0.040 Goal=   None    Shift=    0.000
 RMSDP=7.53D-03 MaxDP=3.78D-01 DE=-3.82D-02 OVMax= 3.84D-01

 Cycle   3  Pass 1  IDiag  1:
 RMSU=  4.60D-03    CP:  9.75D-01  2.74D+00
 E= -628.339938046030     Delta-E=       -0.050936424707 Rises=F Damp=F
 DIIS: error= 1.70D-02 at cycle   3 NSaved=   3.
 NSaved= 3 IEnMin= 3 EnMin= -628.339938046030     IErMin= 2 ErrMin= 1.11D-02
 ErrMax= 1.70D-02  0.00D+00 EMaxC= 1.00D-01 BMatC= 7.66D-02 BMatP= 1.71D-01
 IDIUse=3 WtCom= 8.30D-01 WtEn= 1.70D-01
 Coeff-Com: -0.507D+00 0.954D+00 0.553D+00
 Coeff-En:   0.000D+00 0.000D+00 0.100D+01
 Coeff:     -0.421D+00 0.792D+00 0.629D+00
 Gap=     0.258 Goal=   None    Shift=    0.000
 Gap=     0.075 Goal=   None    Shift=    0.000
 RMSDP=2.06D-03 MaxDP=1.31D-01 DE=-5.09D-02 OVMax= 1.68D-01

 Cycle   4  Pass 1  IDiag  1:
 RMSU=  1.23D-03    CP:  9.82D-01  2.84D+00  6.59D-01
 E= -628.354048075741     Delta-E=       -0.014110029711 Rises=F Damp=F
 DIIS: error= 9.82D-03 at cycle   4 NSaved=   4.
 NSaved= 4 IEnMin= 4 EnMin= -628.354048075741     IErMin= 4 ErrMin= 9.82D-03
 ErrMax= 9.82D-03  0.00D+00 EMaxC= 1.00D-01 BMatC= 3.03D-02 BMatP= 7.66D-02
 IDIUse=3 WtCom= 9.02D-01 WtEn= 9.82D-02
 Coeff-Com: -0.117D+00 0.195D+00 0.404D+00 0.519D+00
 Coeff-En:   0.000D+00 0.000D+00 0.311D+00 0.689D+00
 Coeff:     -0.106D+00 0.176D+00 0.395D+00 0.535D+00
 Gap=     0.248 Goal=   None    Shift=    0.000
 Gap=     0.074 Goal=   None    Shift=    0.000
 RMSDP=1.17D-03 MaxDP=5.33D-02 DE=-1.41D-02 OVMax= 6.40D-02

 Cycle   5  Pass 1  IDiag  1:
 RMSU=  3.62D-04    CP:  9.68D-01  2.75D+00  7.78D-01  6.82D-01
 E= -628.362179294189     Delta-E=       -0.008131218448 Rises=F Damp=F
 DIIS: error= 1.14D-03 at cycle   5 NSaved=   5.
 NSaved= 5 IEnMin= 5 EnMin= -628.362179294189     IErMin= 5 ErrMin= 1.14D-03
 ErrMax= 1.14D-03  0.00D+00 EMaxC= 1.00D-01 BMatC= 5.18D-04 BMatP= 3.03D-02
 IDIUse=3 WtCom= 9.89D-01 WtEn= 1.14D-02
 Coeff-Com: -0.151D-01 0.218D-01 0.131D+00 0.225D+00 0.637D+00
 Coeff-En:   0.000D+00 0.000D+00 0.000D+00 0.000D+00 0.100D+01
 Coeff:     -0.149D-01 0.216D-01 0.130D+00 0.222D+00 0.641D+00
 Gap=     0.248 Goal=   None    Shift=    0.000
 Gap=     0.078 Goal=   None    Shift=    0.000
 RMSDP=2.76D-04 MaxDP=1.78D-02 DE=-8.13D-03 OVMax= 6.20D-03

 Cycle   6  Pass 1  IDiag  1:
 RMSU=  1.50D-04    CP:  9.65D-01  2.76D+00  7.99D-01  7.44D-01  1.05D+00
 E= -628.362279245066     Delta-E=       -0.000099950877 Rises=F Damp=F
 DIIS: error= 5.08D-04 at cycle   6 NSaved=   6.
 NSaved= 6 IEnMin= 6 EnMin= -628.362279245066     IErMin= 6 ErrMin= 5.08D-04
 ErrMax= 5.08D-04  0.00D+00 EMaxC= 1.00D-01 BMatC= 1.28D-04 BMatP= 5.18D-04
 IDIUse=3 WtCom= 9.95D-01 WtEn= 5.08D-03
 Coeff-Com:  0.108D-01-0.199D-01 0.933D-02 0.408D-01 0.358D+00 0.600D+00
 Coeff-En:   0.000D+00 0.000D+00 0.000D+00 0.000D+00 0.000D+00 0.100D+01
 Coeff:      0.108D-01-0.198D-01 0.929D-02 0.406D-01 0.357D+00 0.603D+00
 Gap=     0.248 Goal=   None    Shift=    0.000
 Gap=     0.079 Goal=   None    Shift=    0.000
 RMSDP=1.01D-04 MaxDP=4.85D-03 DE=-1.00D-04 OVMax= 2.07D-03

 Cycle   7  Pass 1  IDiag  1:
 RMSU=  5.81D-05    CP:  9.66D-01  2.78D+00  8.02D-01  7.54D-01  1.05D+00
                    CP:  8.89D-01
 E= -628.362307527847     Delta-E=       -0.000028282781 Rises=F Damp=F
 DIIS: error= 1.78D-04 at cycle   7 NSaved=   7.
 NSaved= 7 IEnMin= 7 EnMin= -628.362307527847     IErMin= 7 ErrMin= 1.78D-04
 ErrMax= 1.78D-04  0.00D+00 EMaxC= 1.00D-01 BMatC= 1.39D-05 BMatP= 1.28D-04
 IDIUse=3 WtCom= 9.98D-01 WtEn= 1.78D-03
 Coeff-Com:  0.684D-02-0.108D-01-0.201D-01-0.268D-01 0.231D-01 0.242D+00
 Coeff-Com:  0.785D+00
 Coeff-En:   0.000D+00 0.000D+00 0.000D+00 0.000D+00 0.000D+00 0.000D+00
 Coeff-En:   0.100D+01
 Coeff:      0.683D-02-0.108D-01-0.200D-01-0.268D-01 0.231D-01 0.242D+00
 Coeff:      0.786D+00
 Gap=     0.248 Goal=   None    Shift=    0.000
 Gap=     0.079 Goal=   None    Shift=    0.000
 RMSDP=3.73D-05 MaxDP=1.91D-03 DE=-2.83D-05 OVMax= 1.32D-03

 Cycle   8  Pass 1  IDiag  1:
 RMSU=  2.48D-05    CP:  9.66D-01  2.78D+00  8.02D-01  7.64D-01  1.10D+00
                    CP:  8.55D-01  1.25D+00
 E= -628.362312686901     Delta-E=       -0.000005159054 Rises=F Damp=F
 DIIS: error= 7.81D-05 at cycle   8 NSaved=   8.
 NSaved= 8 IEnMin= 8 EnMin= -628.362312686901     IErMin= 8 ErrMin= 7.81D-05
 ErrMax= 7.81D-05  0.00D+00 EMaxC= 1.00D-01 BMatC= 3.73D-06 BMatP= 1.39D-05
 IDIUse=1 WtCom= 1.00D+00 WtEn= 0.00D+00
 Coeff-Com:  0.474D-03-0.328D-03-0.111D-01-0.223D-01-0.813D-01-0.191D-01
 Coeff-Com:  0.371D+00 0.763D+00
 Coeff:      0.474D-03-0.328D-03-0.111D-01-0.223D-01-0.813D-01-0.191D-01
 Coeff:      0.371D+00 0.763D+00
 Gap=     0.248 Goal=   None    Shift=    0.000
 Gap=     0.080 Goal=   None    Shift=    0.000
 RMSDP=2.22D-05 MaxDP=1.28D-03 DE=-5.16D-06 OVMax= 7.21D-04

 Cycle   9  Pass 1  IDiag  1:
 RMSU=  8.51D-06    CP:  9.67D-01  2.78D+00  8.02D-01  7.69D-01  1.10D+00
                    CP:  8.46D-01  1.42D+00  1.34D+00
 E= -628.362313894452     Delta-E=       -0.000001207551 Rises=F Damp=F
 DIIS: error= 4.15D-05 at cycle   9 NSaved=   9.
 NSaved= 9 IEnMin= 9 EnMin= -628.362313894452     IErMin= 9 ErrMin= 4.15D-05
 ErrMax= 4.15D-05  0.00D+00 EMaxC= 1.00D-01 BMatC= 7.69D-07 BMatP= 3.73D-06
 IDIUse=1 WtCom= 1.00D+00 WtEn= 0.00D+00
 Coeff-Com: -0.434D-03 0.912D-03-0.297D-02-0.747D-02-0.422D-01-0.303D-01
 Coeff-Com:  0.858D-01 0.400D+00 0.597D+00
 Coeff:     -0.434D-03 0.912D-03-0.297D-02-0.747D-02-0.422D-01-0.303D-01
 Coeff:      0.858D-01 0.400D+00 0.597D+00
 Gap=     0.247 Goal=   None    Shift=    0.000
 Gap=     0.080 Goal=   None    Shift=    0.000
 RMSDP=1.35D-05 MaxDP=6.29D-04 DE=-1.21D-06 OVMax= 2.40D-04

 Cycle  10  Pass 1  IDiag  1:
 RMSU=  3.55D-06    CP:  9.66D-01  2.78D+00  8.03D-01  7.68D-01  1.10D+00
                    CP:  8.81D-01  1.39D+00  1.21D+00  8.00D-01
 E= -628.362314110373     Delta-E=       -0.000000215921 Rises=F Damp=F
 DIIS: error= 2.04D-05 at cycle  10 NSaved=  10.
 NSaved=10 IEnMin=10 EnMin= -628.362314110373     IErMin=10 ErrMin= 2.04D-05
 ErrMax= 2.04D-05  0.00D+00 EMaxC= 1.00D-01 BMatC= 1.30D-07 BMatP= 7.69D-07
 IDIUse=1 WtCom= 1.00D+00 WtEn= 0.00D+00
 Coeff-Com: -0.220D-03 0.332D-03 0.121D-02 0.152D-02-0.698D-03-0.732D-02
 Coeff-Com: -0.479D-01-0.178D-01 0.269D+00 0.802D+00
 Coeff:     -0.220D-03 0.332D-03 0.121D-02 0.152D-02-0.698D-03-0.732D-02
 Coeff:     -0.479D-01-0.178D-01 0.269D+00 0.802D+00
 Gap=     0.247 Goal=   None    Shift=    0.000
 Gap=     0.080 Goal=   None    Shift=    0.000
 RMSDP=4.75D-06 MaxDP=2.18D-04 DE=-2.16D-07 OVMax= 2.48D-04

 Cycle  11  Pass 1  IDiag  1:
 RMSU=  2.13D-06    CP:  9.66D-01  2.78D+00  8.03D-01  7.68D-01  1.10D+00
                    CP:  8.82D-01  1.38D+00  1.20D+00  9.66D-01  1.35D+00
 E= -628.362314178380     Delta-E=       -0.000000068007 Rises=F Damp=F
 DIIS: error= 1.18D-05 at cycle  11 NSaved=  11.
 NSaved=11 IEnMin=11 EnMin= -628.362314178380     IErMin=11 ErrMin= 1.18D-05
 ErrMax= 1.18D-05  0.00D+00 EMaxC= 1.00D-01 BMatC= 3.25D-08 BMatP= 1.30D-07
 IDIUse=1 WtCom= 1.00D+00 WtEn= 0.00D+00
 Coeff-Com: -0.646D-04 0.796D-04 0.121D-02 0.192D-02 0.705D-02 0.147D-02
 Coeff-Com: -0.356D-01-0.835D-01 0.290D-01 0.343D+00 0.736D+00
 Coeff:     -0.646D-04 0.796D-04 0.121D-02 0.192D-02 0.705D-02 0.147D-02
 Coeff:     -0.356D-01-0.835D-01 0.290D-01 0.343D+00 0.736D+00
 Gap=     0.247 Goal=   None    Shift=    0.000
 Gap=     0.080 Goal=   None    Shift=    0.000
 RMSDP=2.67D-06 MaxDP=1.48D-04 DE=-6.80D-08 OVMax= 1.27D-04

 Cycle  12  Pass 1  IDiag  1:
 RMSU=  8.31D-07    CP:  9.66D-01  2.78D+00  8.03D-01  7.67D-01  1.09D+00
                    CP:  8.75D-01  1.36D+00  1.21D+00  1.05D+00  1.61D+00
                    CP:  1.16D+00
 E= -628.362314201391     Delta-E=       -0.000000023012 Rises=F Damp=F
 DIIS: error= 9.77D-06 at cycle  12 NSaved=  12.
 NSaved=12 IEnMin=12 EnMin= -628.362314201391     IErMin=12 ErrMin= 9.77D-06
 ErrMax= 9.77D-06  0.00D+00 EMaxC= 1.00D-01 BMatC= 8.03D-09 BMatP= 3.25D-08
 IDIUse=1 WtCom= 1.00D+00 WtEn= 0.00D+00
 Coeff-Com:  0.780D-04-0.121D-03-0.502D-04-0.213D-03 0.161D-02 0.254D-02
 Coeff-Com:  0.891D-02-0.125D-01-0.727D-01-0.191D+00 0.990D-01 0.116D+01
 Coeff:      0.780D-04-0.121D-03-0.502D-04-0.213D-03 0.161D-02 0.254D-02
 Coeff:      0.891D-02-0.125D-01-0.727D-01-0.191D+00 0.990D-01 0.116D+01
 Gap=     0.247 Goal=   None    Shift=    0.000
 Gap=     0.080 Goal=   None    Shift=    0.000
 RMSDP=2.23D-06 MaxDP=1.18D-04 DE=-2.30D-08 OVMax= 1.49D-04

 Cycle  13  Pass 1  IDiag  1:
 RMSU=  5.86D-07    CP:  9.66D-01  2.78D+00  8.03D-01  7.66D-01  1.09D+00
                    CP:  8.72D-01  1.35D+00  1.20D+00  1.10D+00  1.85D+00
                    CP:  1.44D+00  1.56D+00
 E= -628.362314213103     Delta-E=       -0.000000011712 Rises=F Damp=F
 DIIS: error= 3.78D-06 at cycle  13 NSaved=  13.
 NSaved=13 IEnMin=13 EnMin= -628.362314213103     IErMin=13 ErrMin= 3.78D-06
 ErrMax= 3.78D-06  0.00D+00 EMaxC= 1.00D-01 BMatC= 3.77D-09 BMatP= 8.03D-09
 IDIUse=1 WtCom= 1.00D+00 WtEn= 0.00D+00
 Coeff-Com:  0.659D-04-0.956D-04-0.281D-03-0.573D-03-0.652D-03 0.120D-02
 Coeff-Com:  0.127D-01 0.122D-01-0.475D-01-0.189D+00-0.135D+00 0.685D+00
 Coeff-Com:  0.662D+00
 Coeff:      0.659D-04-0.956D-04-0.281D-03-0.573D-03-0.652D-03 0.120D-02
 Coeff:      0.127D-01 0.122D-01-0.475D-01-0.189D+00-0.135D+00 0.685D+00
 Coeff:      0.662D+00
 Gap=     0.247 Goal=   None    Shift=    0.000
 Gap=     0.080 Goal=   None    Shift=    0.000
 RMSDP=1.32D-06 MaxDP=8.97D-05 DE=-1.17D-08 OVMax= 5.98D-05

 Cycle  14  Pass 1  IDiag  1:
 RMSU=  2.13D-07    CP:  9.66D-01  2.78D+00  8.03D-01  7.66D-01  1.09D+00
                    CP:  8.73D-01  1.34D+00  1.18D+00  1.13D+00  1.97D+00
                    CP:  1.65D+00  1.94D+00  8.52D-01
 E= -628.362314215614     Delta-E=       -0.000000002511 Rises=F Damp=F
 DIIS: error= 1.83D-06 at cycle  14 NSaved=  14.
 NSaved=14 IEnMin=14 EnMin= -628.362314215614     IErMin=14 ErrMin= 1.83D-06
 ErrMax= 1.83D-06  0.00D+00 EMaxC= 1.00D-01 BMatC= 6.74D-10 BMatP= 3.77D-09
 IDIUse=1 WtCom= 1.00D+00 WtEn= 0.00D+00
 Coeff-Com: -0.376D-05 0.893D-05-0.870D-04-0.188D-03-0.108D-02-0.600D-03
 Coeff-Com:  0.124D-02 0.101D-01 0.105D-01 0.101D-01-0.995D-01-0.190D+00
 Coeff-Com:  0.272D+00 0.987D+00
 Coeff:     -0.376D-05 0.893D-05-0.870D-04-0.188D-03-0.108D-02-0.600D-03
 Coeff:      0.124D-02 0.101D-01 0.105D-01 0.101D-01-0.995D-01-0.190D+00
 Coeff:      0.272D+00 0.987D+00
 Gap=     0.247 Goal=   None    Shift=    0.000
 Gap=     0.080 Goal=   None    Shift=    0.000
 RMSDP=5.33D-07 MaxDP=2.69D-05 DE=-2.51D-09 OVMax= 3.89D-05

 Cycle  15  Pass 1  IDiag  1:
 RMSU=  1.16D-07    CP:  9.66D-01  2.78D+00  8.03D-01  7.66D-01  1.09D+00
                    CP:  8.73D-01  1.33D+00  1.18D+00  1.13D+00  2.03D+00
                    CP:  1.72D+00  2.13D+00  1.12D+00  1.30D+00
 E= -628.362314216306     Delta-E=       -0.000000000692 Rises=F Damp=F
 DIIS: error= 4.23D-07 at cycle  15 NSaved=  15.
 NSaved=15 IEnMin=15 EnMin= -628.362314216306     IErMin=15 ErrMin= 4.23D-07
 ErrMax= 4.23D-07  0.00D+00 EMaxC= 1.00D-01 BMatC= 6.15D-11 BMatP= 6.74D-10
 IDIUse=1 WtCom= 1.00D+00 WtEn= 0.00D+00
 Coeff-Com: -0.915D-05 0.137D-04 0.376D-04 0.676D-04 0.166D-04-0.197D-03
 Coeff-Com: -0.208D-02-0.122D-02 0.744D-02 0.365D-01 0.569D-02-0.124D+00
 Coeff-Com: -0.945D-01 0.135D+00 0.104D+01
 Coeff:     -0.915D-05 0.137D-04 0.376D-04 0.676D-04 0.166D-04-0.197D-03
 Coeff:     -0.208D-02-0.122D-02 0.744D-02 0.365D-01 0.569D-02-0.124D+00
 Coeff:     -0.945D-01 0.135D+00 0.104D+01
 Gap=     0.247 Goal=   None    Shift=    0.000
 Gap=     0.080 Goal=   None    Shift=    0.000
 RMSDP=1.78D-07 MaxDP=9.53D-06 DE=-6.92D-10 OVMax= 1.80D-05

 Cycle  16  Pass 1  IDiag  1:
 RMSU=  5.17D-08    CP:  9.66D-01  2.78D+00  8.03D-01  7.66D-01  1.09D+00
                    CP:  8.72D-01  1.33D+00  1.18D+00  1.14D+00  2.05D+00
                    CP:  1.74D+00  2.21D+00  1.19D+00  1.51D+00  1.19D+00
 E= -628.362314216390     Delta-E=       -0.000000000084 Rises=F Damp=F
 DIIS: error= 2.29D-07 at cycle  16 NSaved=  16.
 NSaved=16 IEnMin=16 EnMin= -628.362314216390     IErMin=16 ErrMin= 2.29D-07
 ErrMax= 2.29D-07  0.00D+00 EMaxC= 1.00D-01 BMatC= 8.80D-12 BMatP= 6.15D-11
 IDIUse=1 WtCom= 1.00D+00 WtEn= 0.00D+00
 Coeff-Com:  0.121D-05-0.191D-05 0.371D-05 0.709D-05 0.775D-04 0.443D-04
 Coeff-Com:  0.225D-03-0.751D-03-0.165D-02-0.455D-02 0.642D-02 0.305D-01
 Coeff-Com: -0.154D-01-0.102D+00-0.899D-01 0.118D+01
 Coeff:      0.121D-05-0.191D-05 0.371D-05 0.709D-05 0.775D-04 0.443D-04
 Coeff:      0.225D-03-0.751D-03-0.165D-02-0.455D-02 0.642D-02 0.305D-01
 Coeff:     -0.154D-01-0.102D+00-0.899D-01 0.118D+01
 Gap=     0.247 Goal=   None    Shift=    0.000
 Gap=     0.080 Goal=   None    Shift=    0.000
 RMSDP=6.67D-08 MaxDP=3.41D-06 DE=-8.41D-11 OVMax= 1.38D-05

 Cycle  17  Pass 1  IDiag  1:
 RMSU=  2.30D-08    CP:  9.66D-01  2.78D+00  8.03D-01  7.66D-01  1.09D+00
                    CP:  8.72D-01  1.33D+00  1.18D+00  1.14D+00  2.05D+00
                    CP:  1.74D+00  2.22D+00  1.21D+00  1.59D+00  1.41D+00
                    CP:  1.72D+00
 E= -628.362314216422     Delta-E=       -0.000000000032 Rises=F Damp=F
 DIIS: error= 1.91D-07 at cycle  17 NSaved=  17.
 NSaved=17 IEnMin=17 EnMin= -628.362314216422     IErMin=17 ErrMin= 1.91D-07
 ErrMax= 1.91D-07  0.00D+00 EMaxC= 1.00D-01 BMatC= 5.05D-12 BMatP= 8.80D-12
 IDIUse=1 WtCom= 1.00D+00 WtEn= 0.00D+00
 Coeff-Com:  0.103D-05-0.154D-05-0.102D-04-0.165D-04-0.526D-04 0.379D-04
 Coeff-Com:  0.259D-03 0.781D-03-0.650D-03-0.491D-02-0.526D-02 0.686D-02
 Coeff-Com:  0.337D-01 0.343D-01-0.173D+00-0.785D+00 0.189D+01
 Coeff:      0.103D-05-0.154D-05-0.102D-04-0.165D-04-0.526D-04 0.379D-04
 Coeff:      0.259D-03 0.781D-03-0.650D-03-0.491D-02-0.526D-02 0.686D-02
 Coeff:      0.337D-01 0.343D-01-0.173D+00-0.785D+00 0.189D+01
 Gap=     0.247 Goal=   None    Shift=    0.000
 Gap=     0.080 Goal=   None    Shift=    0.000
 RMSDP=7.62D-08 MaxDP=2.53D-06 DE=-3.23D-11 OVMax= 1.95D-05

 Cycle  18  Pass 1  IDiag  1:
 RMSU=  1.17D-08    CP:  9.66D-01  2.78D+00  8.03D-01  7.66D-01  1.09D+00
                    CP:  8.72D-01  1.33D+00  1.18D+00  1.14D+00  2.05D+00
                    CP:  1.74D+00  2.23D+00  1.22D+00  1.66D+00  1.64D+00
                    CP:  2.79D+00  2.67D+00
 E= -628.362314216458     Delta-E=       -0.000000000036 Rises=F Damp=F
 DIIS: error= 1.37D-07 at cycle  18 NSaved=  18.
 NSaved=18 IEnMin=18 EnMin= -628.362314216458     IErMin=18 ErrMin= 1.37D-07
 ErrMax= 1.37D-07  0.00D+00 EMaxC= 1.00D-01 BMatC= 2.80D-12 BMatP= 5.05D-12
 IDIUse=1 WtCom= 1.00D+00 WtEn= 0.00D+00
 Coeff-Com: -0.106D-05 0.167D-05-0.565D-06-0.320D-05-0.475D-04-0.752D-04
 Coeff-Com: -0.250D-03 0.402D-03 0.177D-02 0.528D-02-0.345D-02-0.290D-01
 Coeff-Com:  0.200D-03 0.825D-01 0.136D+00-0.752D+00-0.711D+00 0.227D+01
 Coeff:     -0.106D-05 0.167D-05-0.565D-06-0.320D-05-0.475D-04-0.752D-04
 Coeff:     -0.250D-03 0.402D-03 0.177D-02 0.528D-02-0.345D-02-0.290D-01
 Coeff:      0.200D-03 0.825D-01 0.136D+00-0.752D+00-0.711D+00 0.227D+01
 Gap=     0.247 Goal=   None    Shift=    0.000
 Gap=     0.080 Goal=   None    Shift=    0.000
 RMSDP=1.21D-07 MaxDP=3.95D-06 DE=-3.64D-11 OVMax= 3.15D-05

 Cycle  19  Pass 1  IDiag  1:
 RMSU=  9.57D-08    CP:  9.66D-01  2.78D+00  8.03D-01  7.66D-01  1.09D+00
                    CP:  8.72D-01  1.33D+00  1.18D+00  1.14D+00  2.05D+00
                    CP:  1.74D+00  2.23D+00  1.24D+00  1.77D+00  1.99D+00
                    CP:  3.00D+00  3.00D+00  2.67D+00
 E= -628.362314216488     Delta-E=       -0.000000000030 Rises=F Damp=F
 DIIS: error= 5.25D-08 at cycle  19 NSaved=  19.
 NSaved=19 IEnMin=19 EnMin= -628.362314216488     IErMin=19 ErrMin= 5.25D-08
 ErrMax= 5.25D-08  0.00D+00 EMaxC= 1.00D-01 BMatC= 9.83D-13 BMatP= 2.80D-12
 IDIUse=1 WtCom= 1.00D+00 WtEn= 0.00D+00
 Coeff-Com: -0.103D-05 0.159D-05 0.330D-05 0.389D-05-0.813D-05-0.585D-04
 Coeff-Com: -0.237D-03-0.605D-04 0.129D-02 0.477D-02 0.775D-04-0.196D-01
 Coeff-Com: -0.123D-01 0.352D-01 0.145D+00-0.153D+00-0.108D+01 0.131D+01
 Coeff-Com:  0.763D+00
 Coeff:     -0.103D-05 0.159D-05 0.330D-05 0.389D-05-0.813D-05-0.585D-04
 Coeff:     -0.237D-03-0.605D-04 0.129D-02 0.477D-02 0.775D-04-0.196D-01
 Coeff:     -0.123D-01 0.352D-01 0.145D+00-0.153D+00-0.108D+01 0.131D+01
 Coeff:      0.763D+00
 Gap=     0.247 Goal=   None    Shift=    0.000
 Gap=     0.080 Goal=   None    Shift=    0.000
 RMSDP=4.83D-08 MaxDP=1.60D-06 DE=-2.96D-11 OVMax= 1.23D-05

 Cycle  20  Pass 1  IDiag  1:
 RMSU=  9.70D-09    CP:  9.66D-01  2.78D+00  8.03D-01  7.66D-01  1.09D+00
                    CP:  8.72D-01  1.33D+00  1.18D+00  1.14D+00  2.05D+00
                    CP:  1.75D+00  2.23D+00  1.25D+00  1.81D+00  2.13D+00
                    CP:  3.00D+00  3.00D+00  3.00D+00  1.44D+00
 E= -628.362314216492     Delta-E=       -0.000000000004 Rises=F Damp=F
 DIIS: error= 2.31D-08 at cycle  20 NSaved=  20.
 NSaved=20 IEnMin=20 EnMin= -628.362314216492     IErMin=20 ErrMin= 2.31D-08
 ErrMax= 2.31D-08  0.00D+00 EMaxC= 1.00D-01 BMatC= 2.15D-13 BMatP= 9.83D-13
 IDIUse=1 WtCom= 1.00D+00 WtEn= 0.00D+00
 Coeff-Com: -0.219D-06 0.330D-06 0.167D-05 0.299D-05 0.108D-04-0.140D-05
 Coeff-Com: -0.355D-04-0.160D-03 0.526D-04 0.552D-03 0.120D-02-0.354D-03
 Coeff-Com: -0.556D-02-0.971D-02 0.271D-01 0.153D+00-0.276D+00-0.116D+00
 Coeff-Com:  0.375D+00 0.851D+00
 Coeff:     -0.219D-06 0.330D-06 0.167D-05 0.299D-05 0.108D-04-0.140D-05
 Coeff:     -0.355D-04-0.160D-03 0.526D-04 0.552D-03 0.120D-02-0.354D-03
 Coeff:     -0.556D-02-0.971D-02 0.271D-01 0.153D+00-0.276D+00-0.116D+00
 Coeff:      0.375D+00 0.851D+00
 Gap=     0.247 Goal=   None    Shift=    0.000
 Gap=     0.080 Goal=   None    Shift=    0.000
 RMSDP=2.08D-08 MaxDP=7.73D-07 DE=-4.09D-12 OVMax= 5.36D-06

 Cycle  21  Pass 1  IDiag  1:
 Restarting incremental Fock formation.
 E= -628.362314216495     Delta-E=       -0.000000000003 Rises=F Damp=F
 DIIS: error= 3.28D-09 at cycle  21 NSaved=  20.
 NSaved=20 IEnMin=20 EnMin= -628.362314216495     IErMin=20 ErrMin= 3.28D-09
 ErrMax= 3.28D-09  0.00D+00 EMaxC= 1.00D-01 BMatC= 7.66D-15 BMatP= 2.15D-13
 IDIUse=1 WtCom= 1.00D+00 WtEn= 0.00D+00
 Coeff-Com: -0.554D-08 0.144D-06 0.566D-06 0.251D-05 0.381D-05 0.554D-05
 Coeff-Com: -0.325D-04-0.686D-04-0.132D-03 0.243D-03 0.100D-02-0.474D-03
 Coeff-Com: -0.390D-02-0.243D-02 0.399D-01-0.304D-02-0.940D-01 0.419D-01
 Coeff-Com:  0.176D+00 0.845D+00
 Coeff:     -0.554D-08 0.144D-06 0.566D-06 0.251D-05 0.381D-05 0.554D-05
 Coeff:     -0.325D-04-0.686D-04-0.132D-03 0.243D-03 0.100D-02-0.474D-03
 Coeff:     -0.390D-02-0.243D-02 0.399D-01-0.304D-02-0.940D-01 0.419D-01
 Coeff:      0.176D+00 0.845D+00
 Gap=     0.247 Goal=   None    Shift=    0.000
 Gap=     0.080 Goal=   None    Shift=    0.000
 RMSDP=2.35D-09 MaxDP=1.69D-07 DE=-2.73D-12 OVMax= 4.44D-07

 SCF Done:  E(UPBE1PBE) =  -628.362314216     A.U. after   21 cycles
            NFock= 21  Conv=0.24D-08     -V/T= 2.0028
 <Sx>= 0.0000 <Sy>= 0.0000 <Sz>= 0.5000 <S**2>= 0.7611 S= 0.5055
 <L.S>=  0.00000000000    
 KE= 6.265773306442D+02 PE=-2.511739936851D+03 EE= 7.355243113848D+02
 Annihilation of the first spin contaminant:
 S**2 before annihilation     0.7611,   after     0.7500
 Leave Link  502 at Thu Jan 30 14:24:30 2025, MaxMem=   104857600 cpu:             100.3 elap:             100.6
 (Enter /sw/cluster/pub/apps//g16/l601.exe)
 Copying SCF densities to generalized density rwf, IOpCl= 1 IROHF=0.

 **********************************************************************

            Population analysis using the SCF density.

 **********************************************************************

 Alpha  occ. eigenvalues --  -25.05363 -25.03464 -25.01886 -25.01879 -10.61396
 Alpha  occ. eigenvalues --  -10.60253 -10.58615 -10.58608 -10.49272 -10.49264
 Alpha  occ. eigenvalues --   -1.53671  -1.51459  -1.50285  -1.49981  -1.18037
 Alpha  occ. eigenvalues --   -1.06084  -1.04803  -0.93025  -0.91196  -0.84074
 Alpha  occ. eigenvalues --   -0.83067  -0.82134  -0.77883  -0.77267  -0.77016
 Alpha  occ. eigenvalues --   -0.74264  -0.72202  -0.71729  -0.71148  -0.70285
 Alpha  occ. eigenvalues --   -0.68001  -0.65076  -0.64190  -0.62705  -0.61606
 Alpha  occ. eigenvalues --   -0.53229  -0.51549
 Alpha virt. eigenvalues --   -0.26800  -0.25828  -0.20473  -0.13813  -0.12952
 Alpha virt. eigenvalues --   -0.10713  -0.10653  -0.09911  -0.08857  -0.08589
 Alpha virt. eigenvalues --   -0.06351  -0.04986  -0.04829  -0.04552  -0.02264
 Alpha virt. eigenvalues --   -0.01561  -0.01434  -0.00851  -0.00321  -0.00160
 Alpha virt. eigenvalues --    0.00293   0.00391   0.00942   0.01502   0.03400
 Alpha virt. eigenvalues --    0.04129   0.04973   0.06316   0.06319   0.07601
 Alpha virt. eigenvalues --    0.07672   0.10110   0.10276   0.10450   0.12659
 Alpha virt. eigenvalues --    0.13637   0.15701   0.16894   0.17926   0.18375
 Alpha virt. eigenvalues --    0.18462   0.19568   0.20460   0.21068   0.21371
 Alpha virt. eigenvalues --    0.21565   0.22803   0.25665   0.25956   0.27533
 Alpha virt. eigenvalues --    0.28397   0.28402   0.28767   0.29185   0.31595
 Alpha virt. eigenvalues --    0.35113   0.35788   0.35802   0.37078   0.37939
 Alpha virt. eigenvalues --    0.38361   0.39883   0.41323   0.42276   0.42786
 Alpha virt. eigenvalues --    0.48520   0.49091   0.49965   0.51962   0.55254
 Alpha virt. eigenvalues --    0.59172   0.61989   0.64205   0.64744   0.70439
 Alpha virt. eigenvalues --    0.70469   0.71126   0.72192   0.75420   0.77076
 Alpha virt. eigenvalues --    0.80189   0.81054   0.82981   0.83724   0.87074
 Alpha virt. eigenvalues --    0.88937   0.94233   0.95976   1.04153   1.12195
 Alpha virt. eigenvalues --    1.19045   1.19879   1.22400   1.23800   1.24430
 Alpha virt. eigenvalues --    1.24656   1.25118   1.25738   1.28772   1.32335
 Alpha virt. eigenvalues --    1.32496   1.34640   1.35190   1.35807   1.36906
 Alpha virt. eigenvalues --    1.37217   1.38083   1.39279   1.43231   1.53338
 Alpha virt. eigenvalues --    1.54828   1.58094   1.60801   1.62308   1.64057
 Alpha virt. eigenvalues --    1.70872   1.72360   1.73205   1.77592   1.83007
 Alpha virt. eigenvalues --    1.83633   1.86246   1.86619   1.89169   1.93357
 Alpha virt. eigenvalues --    1.94467   2.01348   2.04454   2.05984   2.14118
 Alpha virt. eigenvalues --    2.30098   2.31454   2.35489   2.45228   2.47667
 Alpha virt. eigenvalues --    2.50628   2.50656   2.53983   2.55688   2.59783
 Alpha virt. eigenvalues --    2.63886   2.82751   2.86462   2.89548   2.90914
 Alpha virt. eigenvalues --    2.96762   3.00648   3.12444   3.17793   3.40136
 Alpha virt. eigenvalues --    3.40523   3.51402   3.54256   3.56208   3.56889
 Alpha virt. eigenvalues --    3.57820   3.58141   3.62426   3.63582   3.67191
 Alpha virt. eigenvalues --    3.73374   3.76941   3.79108   3.79208   3.80046
 Alpha virt. eigenvalues --    3.82260   3.90101   3.93010   3.94857   4.01275
 Alpha virt. eigenvalues --    4.54656   4.61234   4.66884   4.68890   4.76888
 Alpha virt. eigenvalues --    6.09291   6.12988   6.14999   6.17114   6.19934
 Alpha virt. eigenvalues --    6.26124   6.27743   6.33593   6.42686   6.59443
 Alpha virt. eigenvalues --    6.62856   6.68642  23.29110  23.68690  23.72997
 Alpha virt. eigenvalues --   23.84924  23.93900  24.02028  66.67478  66.71178
 Alpha virt. eigenvalues --   66.73011  66.75219
  Beta  occ. eigenvalues --  -25.04960 -25.03133 -25.01818 -25.01812 -10.60674
  Beta  occ. eigenvalues --  -10.59770 -10.58595 -10.58589 -10.49214 -10.49207
  Beta  occ. eigenvalues --   -1.52852  -1.50739  -1.50142  -1.49761  -1.16984
  Beta  occ. eigenvalues --   -1.04567  -1.04264  -0.92462  -0.90593  -0.83814
  Beta  occ. eigenvalues --   -0.82776  -0.81765  -0.77153  -0.76670  -0.75303
  Beta  occ. eigenvalues --   -0.72071  -0.71650  -0.71260  -0.70066  -0.69709
  Beta  occ. eigenvalues --   -0.67796  -0.64858  -0.63857  -0.62471  -0.58843
  Beta  occ. eigenvalues --   -0.50996
  Beta virt. eigenvalues --   -0.43041  -0.24370  -0.22894  -0.19922  -0.13602
  Beta virt. eigenvalues --   -0.12553  -0.10693  -0.09884  -0.09844  -0.08622
  Beta virt. eigenvalues --   -0.06935  -0.06206  -0.04770  -0.04586  -0.04217
  Beta virt. eigenvalues --   -0.02213  -0.01543  -0.00943  -0.00658  -0.00303
  Beta virt. eigenvalues --    0.00363   0.00365   0.00556   0.01321   0.01596
  Beta virt. eigenvalues --    0.03831   0.04165   0.05123   0.06508   0.06668
  Beta virt. eigenvalues --    0.07693   0.08025   0.10343   0.10506   0.10552
  Beta virt. eigenvalues --    0.12814   0.13762   0.15725   0.17285   0.18082
  Beta virt. eigenvalues --    0.18601   0.18747   0.19805   0.20529   0.21151
  Beta virt. eigenvalues --    0.21412   0.21691   0.22922   0.25787   0.26173
  Beta virt. eigenvalues --    0.27602   0.28438   0.28543   0.28874   0.30148
  Beta virt. eigenvalues --    0.31901   0.35204   0.36094   0.37277   0.37405
  Beta virt. eigenvalues --    0.38006   0.38544   0.39944   0.41776   0.43033
  Beta virt. eigenvalues --    0.43358   0.49161   0.49350   0.50775   0.52155
  Beta virt. eigenvalues --    0.56171   0.59554   0.62103   0.64310   0.65186
  Beta virt. eigenvalues --    0.70744   0.71347   0.71944   0.72815   0.75565
  Beta virt. eigenvalues --    0.77608   0.81136   0.81378   0.83194   0.84455
  Beta virt. eigenvalues --    0.87276   0.90731   0.95198   0.96807   1.04802
  Beta virt. eigenvalues --    1.12759   1.19651   1.20100   1.22664   1.24598
  Beta virt. eigenvalues --    1.24719   1.25051   1.25170   1.26316   1.28860
  Beta virt. eigenvalues --    1.32590   1.32991   1.34739   1.35324   1.35977
  Beta virt. eigenvalues --    1.37407   1.37928   1.38445   1.39364   1.44316
  Beta virt. eigenvalues --    1.53573   1.56129   1.58871   1.61023   1.63860
  Beta virt. eigenvalues --    1.64873   1.71628   1.72476   1.73537   1.77945
  Beta virt. eigenvalues --    1.83787   1.83815   1.86605   1.87247   1.89307
  Beta virt. eigenvalues --    1.94307   1.95052   2.01554   2.05546   2.06116
  Beta virt. eigenvalues --    2.14395   2.30595   2.31545   2.37203   2.45464
  Beta virt. eigenvalues --    2.49620   2.50694   2.51079   2.54020   2.55722
  Beta virt. eigenvalues --    2.61926   2.64361   2.84182   2.86741   2.89904
  Beta virt. eigenvalues --    2.91189   2.96889   3.00957   3.12874   3.17959
  Beta virt. eigenvalues --    3.40565   3.40846   3.51824   3.55284   3.57126
  Beta virt. eigenvalues --    3.57558   3.58031   3.58448   3.63068   3.64444
  Beta virt. eigenvalues --    3.67428   3.74279   3.77939   3.79215   3.79418
  Beta virt. eigenvalues --    3.80496   3.82855   3.90713   3.93208   3.94924
  Beta virt. eigenvalues --    4.01432   4.54974   4.62100   4.67281   4.69007
  Beta virt. eigenvalues --    4.77168   6.10426   6.14268   6.15279   6.17877
  Beta virt. eigenvalues --    6.20125   6.26350   6.27788   6.33746   6.42880
  Beta virt. eigenvalues --    6.59714   6.62923   6.68858  23.29387  23.69184
  Beta virt. eigenvalues --   23.73057  23.85344  23.93963  24.02174  66.67726
  Beta virt. eigenvalues --   66.71457  66.73068  66.75373
          Condensed to atoms (all electrons):
               1          2          3          4          5          6
     1  C   10.427886  -3.087943   2.372263  -2.596244   2.373044  -3.091856
     2  C   -3.087943  13.075596  -1.850205  -0.655193  -3.120934   0.861144
     3  C    2.372263  -1.850205  12.899629  -2.397895  -1.809090  -3.119763
     4  C   -2.596244  -0.655193  -2.397895  14.209493  -2.402408  -0.655639
     5  C    2.373044  -3.120934  -1.809090  -2.402408  12.906965  -1.852769
     6  C   -3.091856   0.861144  -3.119763  -0.655639  -1.852769  13.081177
     7  H   -0.149408   0.598288  -0.113693  -0.010080  -0.020139  -0.019607
     8  H   -0.149526  -0.019570  -0.020152  -0.010022  -0.113779   0.598426
     9  F   -0.017721  -0.217013   0.564152  -0.233881  -0.030949   0.023189
    10  F   -0.006145  -0.055772  -0.247560   0.717676  -0.247619  -0.055765
    11  F   -0.017710   0.023171  -0.030891  -0.234028   0.564404  -0.217041
    12  F    0.547797  -0.235432   0.014377  -0.006646   0.014357  -0.235274
               7          8          9         10         11         12
     1  C   -0.149408  -0.149526  -0.017721  -0.006145  -0.017710   0.547797
     2  C    0.598288  -0.019570  -0.217013  -0.055772   0.023171  -0.235432
     3  C   -0.113693  -0.020152   0.564152  -0.247560  -0.030891   0.014377
     4  C   -0.010080  -0.010022  -0.233881   0.717676  -0.234028  -0.006646
     5  C   -0.020139  -0.113779  -0.030949  -0.247619   0.564404   0.014357
     6  C   -0.019607   0.598426   0.023189  -0.055765  -0.217041  -0.235274
     7  H    0.393305   0.000003  -0.018735   0.000123   0.000567  -0.015557
     8  H    0.000003   0.393321   0.000567   0.000124  -0.018737  -0.015554
     9  F   -0.018735   0.000567   8.992626   0.008271   0.000462   0.000206
    10  F    0.000123   0.000124   0.008271   8.935345   0.008298   0.000072
    11  F    0.000567  -0.018737   0.000462   0.008298   8.992323   0.000206
    12  F   -0.015557  -0.015554   0.000206   0.000072   0.000206   8.957839
          Atomic-Atomic Spin Densities.
               1          2          3          4          5          6
     1  C    0.258666   0.127427  -0.087720   0.073462  -0.087843   0.127410
     2  C    0.127427  -0.102063   0.087334  -0.122991   0.088013  -0.096116
     3  C   -0.087720   0.087334  -0.137506   0.165614  -0.053421   0.087976
     4  C    0.073462  -0.122991   0.165614   0.279038   0.166018  -0.123001
     5  C   -0.087843   0.088013  -0.053421   0.166018  -0.136940   0.087600
     6  C    0.127410  -0.096116   0.087976  -0.123001   0.087600  -0.103397
     7  H    0.003268  -0.004711   0.003037  -0.001480   0.000050  -0.000282
     8  H    0.003286  -0.000300   0.000062  -0.001497   0.003074  -0.004738
     9  F    0.004943  -0.006272   0.005656  -0.010665   0.005344  -0.004506
    10  F   -0.005524   0.008278  -0.008489  -0.053528  -0.008528   0.008282
    11  F    0.004934  -0.004494   0.005322  -0.010663   0.005494  -0.006253
    12  F   -0.053928   0.003172  -0.002578   0.001624  -0.002576   0.003189
               7          8          9         10         11         12
     1  C    0.003268   0.003286   0.004943  -0.005524   0.004934  -0.053928
     2  C   -0.004711  -0.000300  -0.006272   0.008278  -0.004494   0.003172
     3  C    0.003037   0.000062   0.005656  -0.008489   0.005322  -0.002578
     4  C   -0.001480  -0.001497  -0.010665  -0.053528  -0.010663   0.001624
     5  C    0.000050   0.003074   0.005344  -0.008528   0.005494  -0.002576
     6  C   -0.000282  -0.004738  -0.004506   0.008282  -0.006253   0.003189
     7  H   -0.004770   0.000059   0.000199   0.000106  -0.000040  -0.000001
     8  H    0.000059  -0.004712  -0.000040   0.000106   0.000196  -0.000002
     9  F    0.000199  -0.000040   0.019475   0.001466  -0.000003  -0.000005
    10  F    0.000106   0.000106   0.001466   0.148760   0.001472   0.000001
    11  F   -0.000040   0.000196  -0.000003   0.001472   0.019795  -0.000005
    12  F   -0.000001  -0.000002  -0.000005   0.000001  -0.000005   0.121107
 Mulliken charges and spin densities:
               1          2
     1  C   -0.604438   0.368382
     2  C    0.683863  -0.022722
     3  C   -0.261173   0.065288
     4  C    0.274867   0.361931
     5  C   -0.261083   0.066284
     6  C    0.683777  -0.023837
     7  H    0.354930  -0.004567
     8  H    0.354899  -0.004506
     9  F   -0.071175   0.015591
    10  F   -0.057049   0.092403
    11  F   -0.071025   0.015756
    12  F   -0.026393   0.069998
 Sum of Mulliken charges =   1.00000   1.00000
 Mulliken charges and spin densities with hydrogens summed into heavy atoms:
               1          2
     1  C   -0.604438   0.368382
     2  C    1.038793  -0.027289
     3  C   -0.261173   0.065288
     4  C    0.274867   0.361931
     5  C   -0.261083   0.066284
     6  C    1.038676  -0.028343
     9  F   -0.071175   0.015591
    10  F   -0.057049   0.092403
    11  F   -0.071025   0.015756
    12  F   -0.026393   0.069998
 Electronic spatial extent (au):  <R**2>=           1333.6565
 Charge=              1.0000 electrons
 Dipole moment (field-independent basis, Debye):
    X=              0.7821    Y=              0.4522    Z=              0.0000  Tot=              0.9034
 Quadrupole moment (field-independent basis, Debye-Ang):
   XX=            -43.5228   YY=            -42.4839   ZZ=            -49.7783
   XY=             -0.9041   XZ=              0.0000   YZ=              0.0000
 Traceless Quadrupole moment (field-independent basis, Debye-Ang):
   XX=              1.7388   YY=              2.7778   ZZ=             -4.5166
   XY=             -0.9041   XZ=              0.0000   YZ=              0.0000
 Octapole moment (field-independent basis, Debye-Ang**2):
  XXX=             38.7911  YYY=             33.2541  ZZZ=              0.0000  XYY=             12.9274
  XXY=             -3.3761  XXZ=              0.0000  XZZ=              8.8492  YZZ=              5.1102
  YYZ=             -0.0000  XYZ=              0.0000
 Hexadecapole moment (field-independent basis, Debye-Ang**3):
 XXXX=           -676.5598 YYYY=           -569.8268 ZZZZ=            -42.8460 XXXY=            -49.7316
 XXXZ=             -0.0000 YYYX=            -42.6977 YYYZ=             -0.0000 ZZZX=             -0.0000
 ZZZY=             -0.0000 XXYY=           -210.4345 XXZZ=           -120.8811 YYZZ=           -107.5519
 XXYZ=             -0.0000 YYXZ=             -0.0000 ZZXY=            -11.5433
 N-N= 5.212759806058D+02 E-N=-2.511739936882D+03  KE= 6.265773306442D+02
                          Isotropic Fermi Contact Couplings
        Atom                 a.u.       MegaHertz       Gauss      10(-4) cm-1
     1  C(13)              0.01204      13.53001       4.82784       4.51313
     2  C(13)             -0.00742      -8.34016      -2.97598      -2.78198
     3  C(13)             -0.01577     -17.73258      -6.32743      -5.91495
     4  C(13)              0.02112      23.74290       8.47206       7.91978
     5  C(13)             -0.01569     -17.64146      -6.29491      -5.88456
     6  C(13)             -0.00749      -8.42179      -3.00511      -2.80921
     7  H(1)              -0.00107      -4.77112      -1.70245      -1.59147
     8  H(1)              -0.00105      -4.70206      -1.67781      -1.56844
     9  F(19)              0.00180       7.58430       2.70627       2.52985
    10  F(19)              0.02090      87.94636      31.38145      29.33575
    11  F(19)              0.00184       7.76254       2.76987       2.58930
    12  F(19)              0.01582      66.56423      23.75177      22.20344
 --------------------------------------------------------
       Center         ----  Spin Dipole Couplings  ----
                      3XX-RR        3YY-RR        3ZZ-RR
 --------------------------------------------------------
     1   Atom       -0.184999     -0.187375      0.372374
     2   Atom       -0.033613     -0.027477      0.061090
     3   Atom       -0.020982     -0.020699      0.041681
     4   Atom       -0.276970     -0.279080      0.556050
     5   Atom       -0.028324     -0.014451      0.042775
     6   Atom       -0.030974     -0.028909      0.059883
     7   Atom        0.001741      0.003589     -0.005330
     8   Atom       -0.004727      0.010057     -0.005330
     9   Atom       -0.077783     -0.068816      0.146599
    10   Atom       -0.436002     -0.416222      0.852224
    11   Atom       -0.073376     -0.074898      0.148275
    12   Atom       -0.347315     -0.338229      0.685544
 --------------------------------------------------------
                        XY            XZ            YZ
 --------------------------------------------------------
     1   Atom        0.002096      0.000000      0.000000
     2   Atom       -0.002969     -0.000000     -0.000000
     3   Atom       -0.008085      0.000000     -0.000000
     4   Atom        0.001859      0.000000     -0.000000
     5   Atom       -0.004173      0.000000      0.000000
     6   Atom       -0.004133     -0.000000      0.000000
     7   Atom       -0.009156      0.000000     -0.000000
     8   Atom       -0.005361      0.000000     -0.000000
     9   Atom       -0.001673     -0.000000      0.000000
    10   Atom       -0.017092     -0.000000     -0.000000
    11   Atom       -0.004675     -0.000000      0.000000
    12   Atom       -0.007850      0.000000      0.000000
 --------------------------------------------------------


 ---------------------------------------------------------------------------------
              Anisotropic Spin Dipole Couplings in Principal Axis System
 ---------------------------------------------------------------------------------

       Atom             a.u.   MegaHertz   Gauss  10(-4) cm-1        Axes

              Baa    -0.1886   -25.308    -9.030    -8.442 -0.5034  0.8640  0.0000
     1 C(13)  Bbb    -0.1838   -24.661    -8.800    -8.226  0.8640  0.5034 -0.0000
              Bcc     0.3724    49.969    17.830    16.668  0.0000  0.0000  1.0000
 
              Baa    -0.0348    -4.672    -1.667    -1.558  0.9270  0.3751  0.0000
     2 C(13)  Bbb    -0.0263    -3.526    -1.258    -1.176 -0.3751  0.9270  0.0000
              Bcc     0.0611     8.198     2.925     2.734 -0.0000 -0.0000  1.0000
 
              Baa    -0.0289    -3.882    -1.385    -1.295  0.7133  0.7009  0.0000
     3 C(13)  Bbb    -0.0128    -1.711    -0.611    -0.571 -0.7009  0.7133  0.0000
              Bcc     0.0417     5.593     1.996     1.866  0.0000 -0.0000  1.0000
 
              Baa    -0.2802   -37.595   -13.415   -12.540 -0.5033  0.8641  0.0000
     4 C(13)  Bbb    -0.2759   -37.021   -13.210   -12.349  0.8641  0.5033  0.0000
              Bcc     0.5561    74.617    26.625    24.889  0.0000 -0.0000  1.0000
 
              Baa    -0.0295    -3.956    -1.412    -1.320  0.9636  0.2675 -0.0000
     5 C(13)  Bbb    -0.0133    -1.784    -0.636    -0.595 -0.2675  0.9636 -0.0000
              Bcc     0.0428     5.740     2.048     1.915 -0.0000  0.0000  1.0000
 
              Baa    -0.0342    -4.590    -1.638    -1.531  0.7882  0.6155  0.0000
     6 C(13)  Bbb    -0.0257    -3.446    -1.230    -1.150 -0.6155  0.7882 -0.0000
              Bcc     0.0599     8.036     2.867     2.680 -0.0000  0.0000  1.0000
 
              Baa    -0.0065    -3.488    -1.245    -1.163  0.7418  0.6707  0.0000
     7 H(1)   Bbb    -0.0053    -2.844    -1.015    -0.949 -0.0000 -0.0000  1.0000
              Bcc     0.0119     6.332     2.259     2.112 -0.6707  0.7418 -0.0000
 
              Baa    -0.0065    -3.450    -1.231    -1.151  0.9512  0.3086  0.0000
     8 H(1)   Bbb    -0.0053    -2.844    -1.015    -0.949 -0.0000  0.0000  1.0000
              Bcc     0.0118     6.294     2.246     2.099 -0.3086  0.9512 -0.0000
 
              Baa    -0.0781   -39.216   -13.993   -13.081  0.9841  0.1776  0.0000
     9 F(19)  Bbb    -0.0685   -34.410   -12.278   -11.478 -0.1776  0.9841 -0.0000
              Bcc     0.1466    73.626    26.272    24.559 -0.0000  0.0000  1.0000
 
              Baa    -0.4459  -223.922   -79.901   -74.692  0.8663  0.4996  0.0000
    10 F(19)  Bbb    -0.4064  -204.087   -72.823   -68.076 -0.4996  0.8663  0.0000
              Bcc     0.8522   428.009   152.724   142.768 -0.0000 -0.0000  1.0000
 
              Baa    -0.0789   -39.612   -14.135   -13.213  0.6478  0.7618 -0.0000
    11 F(19)  Bbb    -0.0694   -34.855   -12.437   -11.626  0.7618 -0.6478  0.0000
              Bcc     0.1483    74.467    26.572    24.840 -0.0000  0.0000  1.0000
 
              Baa    -0.3518  -176.704   -63.052   -58.942  0.8663  0.4996 -0.0000
    12 F(19)  Bbb    -0.3337  -167.594   -59.802   -55.903 -0.4996  0.8663 -0.0000
              Bcc     0.6855   344.298   122.854   114.845  0.0000  0.0000  1.0000
 

 ---------------------------------------------------------------------------------

 No NMR shielding tensors so no spin-rotation constants.
 Leave Link  601 at Thu Jan 30 14:24:31 2025, MaxMem=   104857600 cpu:               0.1 elap:               0.1
 (Enter /sw/cluster/pub/apps//g16/l701.exe)
 ... and contract with generalized density number  0.
 Compute integral first derivatives.
 Leave Link  701 at Thu Jan 30 14:24:31 2025, MaxMem=   104857600 cpu:               0.0 elap:               0.1
 (Enter /sw/cluster/pub/apps//g16/l702.exe)
 L702 exits ... SP integral derivatives will be done elsewhere.
 Leave Link  702 at Thu Jan 30 14:24:31 2025, MaxMem=   104857600 cpu:               0.0 elap:               0.0
 (Enter /sw/cluster/pub/apps//g16/l703.exe)
 Integral derivatives from FoFJK, PRISM(SPDF).
 Compute integral first derivatives, UseDBF=F ICtDFT=           0.
 Calling FoFJK, ICntrl=      2127 FMM=F ISym2X=0 I1Cent= 0 IOpClX= 1 NMat=1 NMatS=1 NMatT=0.
 FoFJK:  IHMeth= 1 ICntrl=    2127 DoSepK=F KAlg= 0 I1Cent=           0 FoldK=F
 IRaf=         0 NMat=       1 IRICut=       1 DoRegI=T DoRafI=F ISym2E= 0 IDoP0=0 IntGTp=1.
 FoFCou: FMM=F IPFlag=           0 FMFlag=      100000 FMFlg1=         800
         NFxFlg=           0 DoJE=F BraDBF=F KetDBF=F FulRan=T
         wScrn=  0.000000 ICntrl=      2127 IOpCl=  1 I1Cent=           0 NGrid=           0
         NMat0=    1 NMatS0=      1 NMatT0=    0 NMatD0=    1 NMtDS0=    0 NMtDT0=    0
 Symmetry not used in FoFCou.
 Leave Link  703 at Thu Jan 30 14:24:46 2025, MaxMem=   104857600 cpu:              15.0 elap:              15.0
 (Enter /sw/cluster/pub/apps//g16/l716.exe)
 Dipole        = 3.07703987D-01 1.77924934D-01 1.14394203D-09
 -------------------------------------------------------------------
 Center     Atomic                   Forces (Hartrees/Bohr)
 Number     Number              X              Y              Z
 -------------------------------------------------------------------
      1        6           0.042672298    0.024703788   -0.000000001
      2        6          -0.011314498   -0.032447940    0.000000000
      3        6           0.049596815   -0.041508582    0.000000000
      4        6          -0.058048077   -0.033534283   -0.000000000
      5        6          -0.011200518    0.063760621    0.000000000
      6        6          -0.033687644    0.006377909    0.000000000
      7        1           0.001282373   -0.001481384   -0.000000000
      8        1          -0.000623322    0.001856948    0.000000000
      9        9          -0.003071326    0.026636692   -0.000000000
     10        9           0.037637413    0.021681699    0.000000000
     11        9           0.021572108   -0.015964513   -0.000000000
     12        9          -0.034815620   -0.020080954    0.000000000
 -------------------------------------------------------------------
 Cartesian Forces:  Max     0.063760621 RMS     0.025057885
 Leave Link  716 at Thu Jan 30 14:24:46 2025, MaxMem=   104857600 cpu:               0.0 elap:               0.0
 (Enter /sw/cluster/pub/apps//g16/l103.exe)

 GradGradGradGradGradGradGradGradGradGradGradGradGradGradGradGradGradGrad
 Berny optimization.
 FormGI is forming the generalized inverse of G from B-inverse, IUseBI=4.
 Internal  Forces:  Max     0.043435817 RMS     0.013681705
 Search for a local minimum.
 Step number   1 out of a maximum of   64
 All quantities printed in internal units (Hartrees-Bohrs-Radians)
 RMS Force = .13682D-01 SwitMx=.10000D-02 MixMth= 1
 Mixed Optimization -- RFO/linear search
 Second derivative matrix not updated -- first step.
 ITU=  0
     Eigenvalues ---    0.02253   0.02266   0.02280   0.02285   0.02298
     Eigenvalues ---    0.02311   0.02311   0.02311   0.02311   0.16000
     Eigenvalues ---    0.16000   0.23508   0.23508   0.25000   0.25000
     Eigenvalues ---    0.25000   0.25000   0.25000   0.35719   0.35720
     Eigenvalues ---    0.43813   0.43966   0.47901   0.48154   0.48518
     Eigenvalues ---    0.48520   0.57800   0.59523   0.59524   0.60037
 RFO step:  Lambda=-1.93752177D-02 EMin= 2.25344862D-02
 Linear search not attempted -- first point.
 Iteration  1 RMS(Cart)=  0.03296947 RMS(Int)=  0.00035480
 Iteration  2 RMS(Cart)=  0.00041418 RMS(Int)=  0.00002830
 Iteration  3 RMS(Cart)=  0.00000017 RMS(Int)=  0.00002829
 ITry= 1 IFail=0 DXMaxC= 9.39D-02 DCOld= 1.00D+10 DXMaxT= 3.00D-01 DXLimC= 3.00D+00 Rises=F
 Variable       Old X    -DE/DX   Delta X   Delta X   Delta X     New X
                                 (Linear)    (Quad)   (Total)
    R1        2.61392   0.02650   0.00000   0.05210   0.05215   2.66607
    R2        2.61387   0.02642   0.00000   0.05194   0.05198   2.66585
    R3        2.52725  -0.04019   0.00000  -0.06728  -0.06728   2.45997
    R4        2.61392  -0.02113   0.00000  -0.04187  -0.04187   2.57206
    R5        2.04524   0.00185   0.00000   0.00492   0.00492   2.05016
    R6        2.62203   0.03424   0.00000   0.06933   0.06928   2.69132
    R7        2.51319  -0.02659   0.00000  -0.04326  -0.04326   2.46993
    R8        2.62214   0.03432   0.00000   0.06949   0.06944   2.69159
    R9        2.50911  -0.04344   0.00000  -0.07009  -0.07009   2.43902
   R10        2.61388  -0.02111   0.00000  -0.04182  -0.04182   2.57205
   R11        2.51320  -0.02662   0.00000  -0.04331  -0.04331   2.46989
   R12        2.04521   0.00186   0.00000   0.00494   0.00494   2.05015
    A1        2.14516   0.01153   0.00000   0.04193   0.04201   2.18717
    A2        2.06888  -0.00575   0.00000  -0.02092  -0.02096   2.04791
    A3        2.06915  -0.00578   0.00000  -0.02101  -0.02105   2.04810
    A4        2.05322  -0.00409   0.00000  -0.01724  -0.01719   2.03603
    A5        2.12252   0.00269   0.00000   0.01225   0.01223   2.13475
    A6        2.10744   0.00139   0.00000   0.00499   0.00497   2.11241
    A7        2.12254  -0.00594   0.00000  -0.02065  -0.02070   2.10184
    A8        2.09314   0.00732   0.00000   0.02646   0.02649   2.11962
    A9        2.06751  -0.00138   0.00000  -0.00581  -0.00579   2.06172
   A10        2.06968   0.00853   0.00000   0.03388   0.03379   2.10347
   A11        2.10701  -0.00430   0.00000  -0.01707  -0.01702   2.08999
   A12        2.10649  -0.00423   0.00000  -0.01681  -0.01676   2.08973
   A13        2.12288  -0.00596   0.00000  -0.02073  -0.02077   2.10211
   A14        2.06710  -0.00134   0.00000  -0.00566  -0.00564   2.06146
   A15        2.09320   0.00730   0.00000   0.02639   0.02642   2.11962
   A16        2.05289  -0.00407   0.00000  -0.01718  -0.01714   2.03575
   A17        2.12290   0.00267   0.00000   0.01211   0.01209   2.13499
   A18        2.10740   0.00141   0.00000   0.00507   0.00505   2.11245
    D1       -0.00000   0.00000   0.00000   0.00000   0.00000   0.00000
    D2        3.14159   0.00000   0.00000   0.00000   0.00000   3.14159
    D3        3.14159  -0.00000   0.00000  -0.00000   0.00000   3.14159
    D4        0.00000  -0.00000   0.00000  -0.00000  -0.00000   0.00000
    D5        0.00000  -0.00000   0.00000  -0.00000  -0.00000   0.00000
    D6        3.14159  -0.00000   0.00000  -0.00000   0.00000   3.14159
    D7        3.14159   0.00000   0.00000   0.00000   0.00000   3.14159
    D8       -0.00000   0.00000   0.00000   0.00000   0.00000   0.00000
    D9       -0.00000   0.00000   0.00000   0.00000   0.00000   0.00000
   D10        3.14159  -0.00000   0.00000  -0.00000   0.00000   3.14159
   D11        3.14159   0.00000   0.00000   0.00000   0.00000   3.14159
   D12        0.00000  -0.00000   0.00000  -0.00000  -0.00000   0.00000
   D13        0.00000  -0.00000   0.00000  -0.00000  -0.00000   0.00000
   D14        3.14159   0.00000   0.00000   0.00000   0.00000   3.14159
   D15        3.14159   0.00000   0.00000  -0.00000   0.00000   3.14159
   D16       -0.00000   0.00000   0.00000   0.00000   0.00000   0.00000
   D17       -0.00000   0.00000   0.00000   0.00000   0.00000   0.00000
   D18        3.14159   0.00000   0.00000   0.00000   0.00000   3.14159
   D19        3.14159  -0.00000   0.00000  -0.00000   0.00000   3.14159
   D20        0.00000  -0.00000   0.00000  -0.00000  -0.00000   0.00000
   D21       -0.00000   0.00000   0.00000   0.00000   0.00000   0.00000
   D22        3.14159   0.00000   0.00000   0.00000   0.00000   3.14159
   D23        3.14159   0.00000   0.00000   0.00000   0.00000   3.14159
   D24       -0.00000   0.00000   0.00000   0.00000   0.00000   0.00000
         Item               Value     Threshold  Converged?
 Maximum Force            0.043436     0.000450     NO 
 RMS     Force            0.013682     0.000300     NO 
 Maximum Displacement     0.093888     0.001800     NO 
 RMS     Displacement     0.033182     0.001200     NO 
 Predicted change in Energy=-1.006950D-02
 Lowest energy point so far.  Saving SCF results.
 GradGradGradGradGradGradGradGradGradGradGradGradGradGradGradGradGradGrad

 Leave Link  103 at Thu Jan 30 14:24:46 2025, MaxMem=   104857600 cpu:               0.0 elap:               0.0
 (Enter /sw/cluster/pub/apps//g16/l202.exe)
                          Input orientation:                          
 ---------------------------------------------------------------------
 Center     Atomic      Atomic             Coordinates (Angstroms)
 Number     Number       Type             X           Y           Z
 ---------------------------------------------------------------------
      1          6           0        1.157925    0.668630   -0.000000
      2          6           0        1.223284   -0.740677   -0.000000
      3          6           0        0.036460   -1.406990    0.000000
      4          6           0       -1.193647   -0.689259   -0.000000
      5          6           0       -1.200052    0.735054   -0.000000
      6          6           0       -0.029727    1.429932    0.000000
      7          1           0        2.166064   -1.277490    0.000000
      8          1           0       -0.023389    2.514804   -0.000000
      9          9           0       -0.012220   -2.713111   -0.000000
     10          9           0       -2.311514   -1.334405   -0.000000
     11          9           0       -2.355622    1.345740    0.000000
     12          9           0        2.285371    1.319355    0.000000
 ---------------------------------------------------------------------
                    Distance matrix (angstroms):
                    1          2          3          4          5
     1  C    0.000000
     2  C    1.410822   0.000000
     3  C    2.359213   1.361075   0.000000
     4  C    2.715466   2.417478   1.424184   0.000000
     5  C    2.358912   2.837311   2.473320   1.424327   0.000000
     6  C    1.410708   2.506307   2.837693   2.417783   1.361071
     7  H    2.191741   1.084898   2.133538   3.410817   3.921871
     8  H    2.191771   3.486022   3.922250   3.411088   2.133552
     9  F    3.578466   2.327438   1.307028   2.343448   3.647024
    10  F    4.006140   3.584314   2.349095   1.290675   2.349044
    11  F    3.578196   4.142668   3.646858   2.343375   1.307012
    12  F    1.301759   2.317706   3.534198   4.017225   3.534060
                    6          7          8          9         10
     6  C    0.000000
     7  H    3.485919   0.000000
     8  H    1.084891   4.378950   0.000000
     9  F    4.143080   2.608817   5.227927   0.000000
    10  F    3.584426   4.477940   4.477938   2.680967   0.000000
    11  F    2.327418   5.227522   2.608835   4.686770   2.680509
    12  F    2.317737   2.599585   2.599898   4.641089   5.307899
                   11         12
    11  F    0.000000
    12  F    4.641068   0.000000
 Symmetry turned off by external request.
 Stoichiometry    C6H2F4(1+,2)
 Framework group  CS[SG(C6H2F4)]
 Deg. of freedom    21
 Full point group                 CS      NOp   2
 Rotational constants (GHZ):           1.7265307           1.2909169           0.7386401
 Leave Link  202 at Thu Jan 30 14:24:46 2025, MaxMem=   104857600 cpu:               0.0 elap:               0.0
 (Enter /sw/cluster/pub/apps//g16/l301.exe)
 Standard basis: 6-311++G(d,p) (5D, 7F)
 Ernie: Thresh=  0.10000D-02 Tol=  0.10000D-05 Strict=F.
   234 basis functions,   378 primitive gaussians,   244 cartesian basis functions
    37 alpha electrons       36 beta electrons
       nuclear repulsion energy       523.0421458831 Hartrees.
 IExCor= 1009 DFT=T Ex+Corr=PBE1PBE ExCW=0 ScaHFX=  0.250000
 ScaDFX=  0.750000  0.750000  1.000000  1.000000 ScalE2=  1.000000  1.000000
 IRadAn=      5 IRanWt=     -1 IRanGd=            0 ICorTp=0 IEmpDi=  4
 NAtoms=   12 NActive=   12 NUniq=   12 SFac= 1.00D+00 NAtFMM=   60 NAOKFM=F Big=F
 Integral buffers will be    131072 words long.
 Raffenetti 2 integral format.
 Two-electron integral symmetry is turned off.
 Leave Link  301 at Thu Jan 30 14:24:46 2025, MaxMem=   104857600 cpu:               0.0 elap:               0.0
 (Enter /sw/cluster/pub/apps//g16/l302.exe)
 NPDir=0 NMtPBC=     1 NCelOv=     1 NCel=       1 NClECP=     1 NCelD=      1
         NCelK=      1 NCelE2=     1 NClLst=     1 CellRange=     0.0.
 One-electron integrals computed using PRISM.
 NBasis=   234 RedAO= T EigKep=  2.44D-06  NBF=   234
 NBsUse=   234 1.00D-06 EigRej= -1.00D+00 NBFU=   234
 Precomputing XC quadrature grid using
 IXCGrd= 4 IRadAn=           5 IRanWt=          -1 IRanGd=           0 AccXCQ= 0.00D+00.
 Generated NRdTot=       0 NPtTot=           0 NUsed=           0 NTot=          32
 NSgBfM=   244   244   244   244   244 MxSgAt=    12 MxSgA2=    12.
 Leave Link  302 at Thu Jan 30 14:24:46 2025, MaxMem=   104857600 cpu:               0.1 elap:               0.1
 (Enter /sw/cluster/pub/apps//g16/l303.exe)
 DipDrv:  MaxL=1.
 Leave Link  303 at Thu Jan 30 14:24:46 2025, MaxMem=   104857600 cpu:               0.0 elap:               0.0
 (Enter /sw/cluster/pub/apps//g16/l401.exe)
 Initial guess from the checkpoint file:  "1-2-3-5-TtFB-CAT.chk"
 B after Tr=    -0.000538   -0.000294   -0.000000
         Rot=    1.000000   -0.000000   -0.000000   -0.000005 Ang=  -0.00 deg.
 Guess basis will be translated and rotated to current coordinates.
 JPrj=2 DoOrth=T DoCkMO=T.
 Initial guess <Sx>= 0.0000 <Sy>= 0.0000 <Sz>= 0.5000 <S**2>= 0.7614 S= 0.5057
 Generating alternative initial guess.
 ExpMin= 3.60D-02 ExpMax= 1.14D+04 ExpMxC= 1.72D+03 IAcc=3 IRadAn=         5 AccDes= 0.00D+00
 Harris functional with IExCor= 1009 and IRadAn=       5 diagonalized for initial guess.
 HarFok:  IExCor= 1009 AccDes= 0.00D+00 IRadAn=         5 IDoV= 1 UseB2=F ITyADJ=14
 ICtDFT=  3500011 ScaDFX=  1.000000  1.000000  1.000000  1.000000
 FoFCou: FMM=F IPFlag=           0 FMFlag=      100000 FMFlg1=           0
         NFxFlg=           0 DoJE=T BraDBF=F KetDBF=T FulRan=T
         wScrn=  0.000000 ICntrl=       500 IOpCl=  0 I1Cent=   200000004 NGrid=           0
         NMat0=    1 NMatS0=      1 NMatT0=    0 NMatD0=    1 NMtDS0=    0 NMtDT0=    0
 Symmetry not used in FoFCou.
 Harris En= -628.468116951487    
 Leave Link  401 at Thu Jan 30 14:24:47 2025, MaxMem=   104857600 cpu:               1.4 elap:               1.4
 (Enter /sw/cluster/pub/apps//g16/l502.exe)
 Two-electron integral symmetry not used.
 UHF open shell SCF:
 Using DIIS extrapolation, IDIIS=  1040.
 NGot=   104857600 LenX=   104735324 LenY=   104675347
 Requested convergence on RMS density matrix=1.00D-08 within 128 cycles.
 Requested convergence on MAX density matrix=1.00D-06.
 Requested convergence on             energy=1.00D-06.
 No special actions if energy rises.
 Fock matrices will be formed incrementally for  20 cycles.

 Cycle   1  Pass 1  IDiag  1:
 FoFJK:  IHMeth= 1 ICntrl=       0 DoSepK=F KAlg= 0 I1Cent=           0 FoldK=F
 IRaf= 930000000 NMat=       1 IRICut=       1 DoRegI=T DoRafI=F ISym2E= 0 IDoP0=0 IntGTp=1.
 FoFCou: FMM=F IPFlag=           0 FMFlag=      100000 FMFlg1=           0
         NFxFlg=           0 DoJE=F BraDBF=F KetDBF=F FulRan=T
         wScrn=  0.000000 ICntrl=         0 IOpCl=  1 I1Cent=           0 NGrid=           0
         NMat0=    1 NMatS0=      1 NMatT0=    0 NMatD0=    1 NMtDS0=    0 NMtDT0=    0
 Symmetry not used in FoFCou.
 E= -628.363430551322    
 DIIS: error= 4.17D-03 at cycle   1 NSaved=   1.
 NSaved= 1 IEnMin= 1 EnMin= -628.363430551322     IErMin= 1 ErrMin= 4.17D-03
 ErrMax= 4.17D-03  0.00D+00 EMaxC= 1.00D-01 BMatC= 2.83D-02 BMatP= 2.83D-02
 IDIUse=3 WtCom= 9.58D-01 WtEn= 4.17D-02
 Coeff-Com:  0.100D+01
 Coeff-En:   0.100D+01
 Coeff:      0.100D+01
 Gap=     0.492 Goal=   None    Shift=    0.000
 Gap=     0.488 Goal=   None    Shift=    0.000
 GapD=    0.488 DampG=2.000 DampE=1.000 DampFc=2.0000 IDamp=-1.
 RMSDP=9.82D-03 MaxDP=6.27D-01              OVMax= 4.83D-02

 Cycle   2  Pass 1  IDiag  1:
 RMSU=  5.20D-03    CP:  8.57D-01
 E= -628.372770658434     Delta-E=       -0.009340107112 Rises=F Damp=F
 DIIS: error= 2.19D-03 at cycle   2 NSaved=   2.
 NSaved= 2 IEnMin= 2 EnMin= -628.372770658434     IErMin= 2 ErrMin= 2.19D-03
 ErrMax= 2.19D-03  0.00D+00 EMaxC= 1.00D-01 BMatC= 3.73D-03 BMatP= 2.83D-02
 IDIUse=3 WtCom= 9.78D-01 WtEn= 2.19D-02
 Coeff-Com:  0.139D+00 0.861D+00
 Coeff-En:   0.000D+00 0.100D+01
 Coeff:      0.136D+00 0.864D+00
 Gap=     0.246 Goal=   None    Shift=    0.000
 Gap=     0.095 Goal=   None    Shift=    0.000
 RMSDP=7.34D-04 MaxDP=2.97D-02 DE=-9.34D-03 OVMax= 1.44D-02

 Cycle   3  Pass 1  IDiag  1:
 RMSU=  6.80D-04    CP:  8.53D-01  1.03D+00
 E= -628.372683354754     Delta-E=        0.000087303680 Rises=F Damp=F
 DIIS: error= 2.76D-03 at cycle   3 NSaved=   3.
 NSaved= 3 IEnMin= 2 EnMin= -628.372770658434     IErMin= 2 ErrMin= 2.19D-03
 ErrMax= 2.76D-03  0.00D+00 EMaxC= 1.00D-01 BMatC= 4.64D-03 BMatP= 3.73D-03
 IDIUse=3 WtCom= 1.60D-01 WtEn= 8.40D-01
 Coeff-Com: -0.171D-01 0.534D+00 0.483D+00
 Coeff-En:   0.000D+00 0.528D+00 0.472D+00
 Coeff:     -0.274D-02 0.529D+00 0.474D+00
 Gap=     0.245 Goal=   None    Shift=    0.000
 Gap=     0.099 Goal=   None    Shift=    0.000
 RMSDP=3.32D-04 MaxDP=2.36D-02 DE= 8.73D-05 OVMax= 6.54D-03

 Cycle   4  Pass 1  IDiag  1:
 RMSU=  1.69D-04    CP:  8.51D-01  1.04D+00  6.62D-01
 E= -628.373421362911     Delta-E=       -0.000738008157 Rises=F Damp=F
 DIIS: error= 3.17D-04 at cycle   4 NSaved=   4.
 NSaved= 4 IEnMin= 4 EnMin= -628.373421362911     IErMin= 4 ErrMin= 3.17D-04
 ErrMax= 3.17D-04  0.00D+00 EMaxC= 1.00D-01 BMatC= 5.26D-05 BMatP= 3.73D-03
 IDIUse=3 WtCom= 9.97D-01 WtEn= 3.17D-03
 Coeff-Com: -0.933D-02 0.148D+00 0.169D+00 0.693D+00
 Coeff-En:   0.000D+00 0.000D+00 0.000D+00 0.100D+01
 Coeff:     -0.930D-02 0.147D+00 0.168D+00 0.694D+00
 Gap=     0.245 Goal=   None    Shift=    0.000
 Gap=     0.099 Goal=   None    Shift=    0.000
 RMSDP=7.23D-05 MaxDP=4.10D-03 DE=-7.38D-04 OVMax= 3.02D-03

 Cycle   5  Pass 1  IDiag  1:
 RMSU=  4.47D-05    CP:  8.51D-01  1.04D+00  6.38D-01  7.58D-01
 E= -628.373427445354     Delta-E=       -0.000006082443 Rises=F Damp=F
 DIIS: error= 2.29D-04 at cycle   5 NSaved=   5.
 NSaved= 5 IEnMin= 5 EnMin= -628.373427445354     IErMin= 5 ErrMin= 2.29D-04
 ErrMax= 2.29D-04  0.00D+00 EMaxC= 1.00D-01 BMatC= 2.19D-05 BMatP= 5.26D-05
 IDIUse=3 WtCom= 9.98D-01 WtEn= 2.29D-03
 Coeff-Com: -0.444D-02 0.406D-01 0.559D-01 0.417D+00 0.491D+00
 Coeff-En:   0.000D+00 0.000D+00 0.000D+00 0.301D+00 0.699D+00
 Coeff:     -0.443D-02 0.405D-01 0.558D-01 0.417D+00 0.492D+00
 Gap=     0.245 Goal=   None    Shift=    0.000
 Gap=     0.099 Goal=   None    Shift=    0.000
 RMSDP=2.21D-05 MaxDP=1.26D-03 DE=-6.08D-06 OVMax= 1.18D-03

 Cycle   6  Pass 1  IDiag  1:
 RMSU=  1.91D-05    CP:  8.51D-01  1.04D+00  6.40D-01  7.73D-01  9.42D-01
 E= -628.373432207943     Delta-E=       -0.000004762589 Rises=F Damp=F
 DIIS: error= 5.22D-05 at cycle   6 NSaved=   6.
 NSaved= 6 IEnMin= 6 EnMin= -628.373432207943     IErMin= 6 ErrMin= 5.22D-05
 ErrMax= 5.22D-05  0.00D+00 EMaxC= 1.00D-01 BMatC= 1.22D-06 BMatP= 2.19D-05
[...]
   R10        2.57154   0.00003   0.00000   0.00009   0.00009   2.57163
   R11        2.45180  -0.00003   0.00000  -0.00007  -0.00007   2.45173
   R12        2.04968  -0.00001   0.00000  -0.00004  -0.00004   2.04964
    A1        2.18122   0.00005   0.00000   0.00038   0.00038   2.18159
    A2        2.05096  -0.00002   0.00000  -0.00017  -0.00017   2.05079
    A3        2.05101  -0.00003   0.00000  -0.00021  -0.00021   2.05080
    A4        2.04483  -0.00005   0.00000  -0.00028  -0.00028   2.04456
    A5        2.10801   0.00000   0.00000  -0.00013  -0.00013   2.10788
    A6        2.13035   0.00004   0.00000   0.00041   0.00041   2.13075
    A7        2.09604  -0.00001   0.00000  -0.00007  -0.00007   2.09597
    A8        2.14635   0.00001   0.00000   0.00010   0.00010   2.14645
    A9        2.04080  -0.00000   0.00000  -0.00003  -0.00003   2.04077
   A10        2.10341   0.00005   0.00000   0.00032   0.00032   2.10373
   A11        2.08991  -0.00003   0.00000  -0.00018  -0.00018   2.08973
   A12        2.08986  -0.00002   0.00000  -0.00013  -0.00013   2.08973
   A13        2.09608  -0.00001   0.00000  -0.00011  -0.00011   2.09597
   A14        2.04075   0.00000   0.00000   0.00001   0.00001   2.04076
   A15        2.14636   0.00001   0.00000   0.00009   0.00009   2.14645
   A16        2.04479  -0.00004   0.00000  -0.00024  -0.00024   2.04455
   A17        2.10804  -0.00000   0.00000  -0.00017  -0.00017   2.10787
   A18        2.13035   0.00004   0.00000   0.00041   0.00041   2.13076
    D1       -0.00000   0.00000   0.00000   0.00000   0.00000   0.00000
    D2        3.14159   0.00000   0.00000   0.00000   0.00000   3.14159
    D3       -3.14159  -0.00000   0.00000  -0.00000  -0.00000  -3.14159
    D4        0.00000  -0.00000   0.00000  -0.00000  -0.00000   0.00000
    D5        0.00000  -0.00000   0.00000  -0.00000  -0.00000   0.00000
    D6        3.14159  -0.00000   0.00000  -0.00000   0.00000   3.14159
    D7        3.14159   0.00000   0.00000   0.00000   0.00000   3.14159
    D8       -0.00000   0.00000   0.00000   0.00000   0.00000   0.00000
    D9       -0.00000   0.00000   0.00000   0.00000   0.00000   0.00000
   D10       -3.14159  -0.00000   0.00000  -0.00000  -0.00000   3.14159
   D11        3.14159   0.00000   0.00000   0.00000   0.00000   3.14159
   D12        0.00000  -0.00000   0.00000  -0.00000  -0.00000   0.00000
   D13        0.00000  -0.00000   0.00000  -0.00000  -0.00000   0.00000
   D14        3.14159  -0.00000   0.00000  -0.00000   0.00000   3.14159
   D15        3.14159   0.00000   0.00000   0.00000   0.00000   3.14159
   D16       -0.00000   0.00000   0.00000   0.00000   0.00000   0.00000
   D17       -0.00000   0.00000   0.00000   0.00000   0.00000   0.00000
   D18        3.14159  -0.00000   0.00000  -0.00000   0.00000   3.14159
   D19        3.14159   0.00000   0.00000  -0.00000   0.00000   3.14159
   D20        0.00000  -0.00000   0.00000  -0.00000  -0.00000   0.00000
   D21        0.00000   0.00000   0.00000  -0.00000   0.00000   0.00000
   D22        3.14159  -0.00000   0.00000  -0.00000   0.00000   3.14159
   D23        3.14159   0.00000   0.00000   0.00000   0.00000   3.14159
   D24       -0.00000   0.00000   0.00000   0.00000   0.00000   0.00000
         Item               Value     Threshold  Converged?
 Maximum Force            0.000060     0.000450     YES
 RMS     Force            0.000023     0.000300     YES
 Maximum Displacement     0.000563     0.001800     YES
 RMS     Displacement     0.000177     0.001200     YES
 Predicted change in Energy=-7.712836D-08
 Optimization completed.
    -- Stationary point found.
                           ----------------------------
                           !   Optimized Parameters   !
                           ! (Angstroms and Degrees)  !
 --------------------------                            --------------------------
 ! Name  Definition              Value          Derivative Info.                !
 --------------------------------------------------------------------------------
 ! R1    R(1,2)                  1.413          -DE/DX =    0.0                 !
 ! R2    R(1,6)                  1.4129         -DE/DX =    0.0                 !
 ! R3    R(1,12)                 1.2913         -DE/DX =    0.0001              !
 ! R4    R(2,3)                  1.3608         -DE/DX =    0.0                 !
 ! R5    R(2,7)                  1.0846         -DE/DX =    0.0                 !
 ! R6    R(3,4)                  1.4336         -DE/DX =    0.0                 !
 ! R7    R(3,9)                  1.2974         -DE/DX =    0.0                 !
 ! R8    R(4,5)                  1.4336         -DE/DX =    0.0                 !
 ! R9    R(4,10)                 1.2802         -DE/DX =    0.0                 !
 ! R10   R(5,6)                  1.3608         -DE/DX =    0.0                 !
 ! R11   R(5,11)                 1.2974         -DE/DX =    0.0                 !
 ! R12   R(6,8)                  1.0846         -DE/DX =    0.0                 !
 ! A1    A(2,1,6)              124.9745         -DE/DX =    0.0001              !
 ! A2    A(2,1,12)             117.5113         -DE/DX =    0.0                 !
 ! A3    A(6,1,12)             117.5142         -DE/DX =    0.0                 !
 ! A4    A(1,2,3)              117.1603         -DE/DX =    0.0                 !
 ! A5    A(1,2,7)              120.7799         -DE/DX =    0.0                 !
 ! A6    A(3,2,7)              122.0598         -DE/DX =    0.0                 !
 ! A7    A(2,3,4)              120.0942         -DE/DX =    0.0                 !
 ! A8    A(2,3,9)              122.9768         -DE/DX =    0.0                 !
 ! A9    A(4,3,9)              116.929          -DE/DX =    0.0                 !
 ! A10   A(3,4,5)              120.5168         -DE/DX =    0.0001              !
 ! A11   A(3,4,10)             119.7432         -DE/DX =    0.0                 !
 ! A12   A(5,4,10)             119.7401         -DE/DX =    0.0                 !
 ! A13   A(4,5,6)              120.0964         -DE/DX =    0.0                 !
 ! A14   A(4,5,11)             116.9264         -DE/DX =    0.0                 !
 ! A15   A(6,5,11)             122.9772         -DE/DX =    0.0                 !
 ! A16   A(1,6,5)              117.1578         -DE/DX =    0.0                 !
 ! A17   A(1,6,8)              120.7819         -DE/DX =    0.0                 !
 ! A18   A(5,6,8)              122.0602         -DE/DX =    0.0                 !
 ! D1    D(6,1,2,3)              0.0            -DE/DX =    0.0                 !
 ! D2    D(6,1,2,7)            180.0            -DE/DX =    0.0                 !
 ! D3    D(12,1,2,3)          -180.0            -DE/DX =    0.0                 !
 ! D4    D(12,1,2,7)             0.0            -DE/DX =    0.0                 !
 ! D5    D(2,1,6,5)              0.0            -DE/DX =    0.0                 !
 ! D6    D(2,1,6,8)            180.0            -DE/DX =    0.0                 !
 ! D7    D(12,1,6,5)           180.0            -DE/DX =    0.0                 !
 ! D8    D(12,1,6,8)             0.0            -DE/DX =    0.0                 !
 ! D9    D(1,2,3,4)              0.0            -DE/DX =    0.0                 !
 ! D10   D(1,2,3,9)            180.0            -DE/DX =    0.0                 !
 ! D11   D(7,2,3,4)            180.0            -DE/DX =    0.0                 !
 ! D12   D(7,2,3,9)              0.0            -DE/DX =    0.0                 !
 ! D13   D(2,3,4,5)              0.0            -DE/DX =    0.0                 !
 ! D14   D(2,3,4,10)           180.0            -DE/DX =    0.0                 !
 ! D15   D(9,3,4,5)            180.0            -DE/DX =    0.0                 !
 ! D16   D(9,3,4,10)             0.0            -DE/DX =    0.0                 !
 ! D17   D(3,4,5,6)              0.0            -DE/DX =    0.0                 !
 ! D18   D(3,4,5,11)           180.0            -DE/DX =    0.0                 !
 ! D19   D(10,4,5,6)           180.0            -DE/DX =    0.0                 !
 ! D20   D(10,4,5,11)            0.0            -DE/DX =    0.0                 !
 ! D21   D(4,5,6,1)              0.0            -DE/DX =    0.0                 !
 ! D22   D(4,5,6,8)            180.0            -DE/DX =    0.0                 !
 ! D23   D(11,5,6,1)           180.0            -DE/DX =    0.0                 !
 ! D24   D(11,5,6,8)             0.0            -DE/DX =    0.0                 !
 --------------------------------------------------------------------------------
 GradGradGradGradGradGradGradGradGradGradGradGradGradGradGradGradGradGrad

 Leave Link  103 at Thu Jan 30 14:38:14 2025, MaxMem=   104857600 cpu:               0.0 elap:               0.0
 (Enter /sw/cluster/pub/apps//g16/l9999.exe)

 ----------------------------------------------------------------------

 Electric dipole moment (input orientation):
 (Debye = 10**-18 statcoulomb cm , SI units = C m)
                  (au)            (Debye)         (10**-30 SI)
   Tot        0.309375D+00      0.786353D+00      0.262299D+01
   x          0.267894D+00      0.680919D+00      0.227130D+01
   y          0.154744D+00      0.393320D+00      0.131197D+01
   z          0.000000D+00      0.000000D+00      0.000000D+00

 Dipole polarizability, Alpha (input orientation).
 (esu units = cm**3 , SI units = C**2 m**2 J**-1)
 Alpha(0;0):
               (au)            (10**-24 esu)      (10**-40 SI)
   iso        0.653663D+02      0.968629D+01      0.107775D+02
   aniso      0.521894D+02      0.773367D+01      0.860486D+01
   xx         0.865505D+02      0.128255D+02      0.142703D+02
   yx         0.801447D+01      0.118762D+01      0.132141D+01
   yy         0.772931D+02      0.114537D+02      0.127439D+02
   zx         0.000000D+00      0.000000D+00      0.000000D+00
   zy         0.000000D+00      0.000000D+00      0.000000D+00
   zz         0.322553D+02      0.477975D+01      0.531819D+01

 ----------------------------------------------------------------------

 Dipole orientation:
     6          0.00024961         -0.00043217          2.53409750
     6          1.18461162         -2.05080989          1.30014379
     6          1.17642072         -2.03662970         -1.27133983
     6         -0.00025814          0.00044689         -2.61477892
     6         -1.17667349          2.03706734         -1.27030308
     6         -1.18436185          2.05037750          1.30119204
     1          2.05692169         -3.56096062          2.37703678
     1         -2.05645812          3.56015810          2.37878120
     9          2.20092543         -3.81026121         -2.61892918
     9         -0.00055039          0.00095285         -5.03397445
     9         -2.20143157          3.81113735         -2.61709871
     9          0.00054538         -0.00094412          4.97423859

 Electric dipole moment (dipole orientation):
 (Debye = 10**-18 statcoulomb cm , SI units = C m)
                  (au)            (Debye)         (10**-30 SI)
   Tot        0.309375D+00      0.786353D+00      0.262299D+01
   x          0.000000D+00      0.000000D+00      0.000000D+00
   y          0.000000D+00      0.000000D+00      0.000000D+00
   z          0.309375D+00      0.786353D+00      0.262299D+01

 Dipole polarizability, Alpha (dipole orientation).
 (esu units = cm**3 , SI units = C**2 m**2 J**-1)
 Alpha(0;0):
               (au)            (10**-24 esu)      (10**-40 SI)
   iso        0.653663D+02      0.968629D+01      0.107775D+02
   aniso      0.521894D+02      0.773367D+01      0.860486D+01
   xx         0.423656D+02      0.627793D+01      0.698514D+01
   yx        -0.175029D+02     -0.259366D+01     -0.288584D+01
   yy         0.625565D+02      0.926992D+01      0.103142D+02
   zx         0.262079D-02      0.388360D-03      0.432109D-03
   zy        -0.453709D-02     -0.672327D-03     -0.748065D-03
   zz         0.911769D+02      0.135110D+02      0.150330D+02

 ----------------------------------------------------------------------
 1\1\GINC-N02\Freq\UPBE1PBE\6-311++G(d,p)\C6H2F4(1+,2)\UNKNOWN\30-Jan-2
 025\0\\#P Geom=AllCheck Guess=TCheck SCRF=Check GenChk UPBE1PBE/6-311+
 +G(d,p) Freq\\1 2 3 4 TtFB SP\\1,2\C,1.1613193584,0.6705092114,0.00000
 00119\C,1.2226280829,-0.7411131425,-0.0000000008\C,0.0399751184,-1.414
 2427635,-0.0000000113\C,-1.1982941181,-0.6918565889,0.000000001\C,-1.2
 047536468,0.7417392878,-0.0000000064\C,-0.0304983593,1.4294192159,-0.0
 000000004\H,2.1776941638,-1.2552129445,0.\H,0.0017866481,2.5135825197,
 0.0000000025\F,-0.0353796788,-2.7094949798,0.0000000116\F,-2.306985057
 3,-1.3319139098,-0.0000000068\F,-2.3641679157,1.3240599501,0.000000006
 \F,2.2796099225,1.3161073265,-0.0000000082\\Version=ES64L-G16RevA.03\H
 F=-628.3742213\S2=0.761932\S2-1=0.\S2A=0.75004\RMSD=3.527e-09\RMSF=4.6
 25e-05\ZeroPoint=0.0680359\Thermal=0.0758948\Dipole=0.7714952,0.445508
 4,0.\DipoleDeriv=1.8198779,0.3448213,0.,0.3450043,1.4215915,0.,0.,0.,0
 .2865727,-0.0720704,-0.2716929,0.,-0.2182997,-0.8256169,0.,0.,0.,-0.08
 41856,0.042999,0.0770879,0.,0.2891719,1.7315296,0.,0.,0.,0.2032555,1.4
 167158,0.7701587,0.,0.7700558,0.5272587,0.,0.,0.,0.2911951,1.4682812,-
 0.533452,0.,-0.7453646,0.3067264,0.,0.,0.,0.2033476,-0.8496084,0.23057
 79,0.,0.1769702,-0.0484186,0.,0.,0.,-0.0842938,0.2113009,-0.0373537,0.
 ,-0.0367612,0.129968,0.,0.,0.,0.1980165,0.1182199,0.0169866,0.,0.01639
 93,0.2230501,0.,0.,0.,0.1980195,-0.1015748,-0.0288859,0.,-0.1029248,-1
 .2618273,0.,0.,0.,-0.0628801,-0.9503152,-0.4929792,0.,-0.4929332,-0.38
 10613,0.,0.,0.,-0.0237976,-1.0288598,0.4324585,0.,0.5064368,-0.3345836
 ,0.,0.,0.,-0.0628682,-1.0749661,-0.5077274,0.,-0.5077548,-0.4886167,0.
 ,0.,0.,-0.0623817\Polar=86.5505342,8.0144704,77.2931238,0.,0.,32.25534
 76\Quadrupole=1.5242211,2.3154534,-3.8396745,-0.6854643,0.,0.\PG=C01 [
 X(C6H2F4)]\NImag=0\\0.69309061,0.07019499,0.61198615,0.,0.,0.15836175,
 -0.12953153,0.07561704,0.,0.81063849,-0.00865317,-0.26454901,0.,-0.000
 74791,0.67368106,0.,0.,-0.05560222,0.,0.,0.10011435,0.01507494,-0.0204
 6720,0.,-0.37524001,-0.11889444,0.,0.70482176,-0.02131447,-0.06774911,
 0.,-0.13453030,-0.15680812,0.,0.09025463,0.76448715,0.,0.,-0.01359581,
 0.,0.,-0.04680171,0.,0.,0.12455987,-0.00042046,-0.03563997,0.,-0.03376
 665,0.01784997,0.,-0.20092241,0.09703491,0.,0.73246062,-0.03562760,0.0
 4068664,0.,-0.00590271,0.01592273,0.,0.01962855,-0.12485015,0.,0.09187
 069,0.62634953,0.,0.,0.00459084,0.,0.,-0.00606383,0.,0.,-0.05021519,0.
 ,0.,0.11563337,-0.06514689,0.02504212,0.,-0.01179618,-0.02789841,0.,0.
 03651487,0.03149617,0.,-0.09331980,0.03490205,0.,0.82770896,0.02584310
 ,0.01252385,0.,-0.01253139,-0.02387822,0.,0.07105292,-0.02263384,0.,-0
 .04244598,-0.23240712,0.,0.01925464,0.64151319,0.,0.,-0.01359188,0.,0.
 ,0.01038781,0.,0.,-0.00286977,0.,0.,-0.05021877,0.,0.,0.12455918,-0.20
 179095,0.03306558,0.,0.03349245,0.06310155,0.,-0.03832427,-0.01257988,
 0.,0.00865578,-0.00661941,0.,-0.32110155,-0.15013140,0.,0.70720407,0.1
 1735930,-0.19231257,0.,0.02485076,-0.01728043,0.,0.00279819,0.00268006
 ,0.,-0.03041103,-0.02650639,0.,-0.16574809,-0.21089659,0.,0.05891108,0
 .77706437,0.,0.,-0.05560298,0.,0.,0.00296546,0.,0.,0.01038977,0.,0.,-0
 .00606651,0.,0.,-0.04680362,0.,0.,0.10011159,0.00726114,-0.00288902,0.
 ,-0.28747902,0.12428653,0.,-0.01502563,0.01232933,0.,-0.00285147,-0.00
 190757,0.,-0.00067910,-0.00096386,0.,0.00038081,-0.00180479,0.,0.29624
 604,0.02744935,-0.00859563,0.,0.12274800,-0.12308684,0.,-0.01700837,0.
 01544396,0.,-0.00106852,-0.00409429,0.,-0.00074670,0.00020915,0.,-0.00
 110250,-0.00493462,0.,-0.13146096,0.12147091,0.,0.,0.00182521,0.,0.,-0
 .03262012,0.,0.,0.00702054,0.,0.,0.00825862,0.,0.,-0.00229718,0.,0.,0.
 00347392,0.,0.,0.02262493,0.00600392,0.02817411,0.,-0.00486464,0.00192
 583,0.,-0.00075249,-0.00070362,0.,-0.00507249,0.00021425,0.,0.00580084
 ,-0.02903325,0.,-0.05721319,-0.01019007,0.,0.00040859,0.00114360,0.,0.
 05131239,-0.00216085,-0.00733812,0.,0.00122460,0.00031238,0.,-0.000922
 18,0.00028344,0.,-0.00062462,-0.00187135,0.,0.00030328,-0.00538135,0.,
 -0.00865066,-0.35334843,0.,-0.00009523,-0.00019659,0.,0.00994474,0.366
 39276,0.,0.,0.00182458,0.,0.,0.00347496,0.,0.,-0.00229684,0.,0.,0.0082
 5829,0.,0.,0.00701988,0.,0.,-0.03261174,0.,0.,0.00101041,0.,0.,0.02261
 789,-0.00831293,0.00338803,0.,0.00777443,-0.04687087,0.,-0.07779404,-0
 .02000032,0.,0.00028999,0.03968582,0.,-0.00857718,-0.00452477,0.,0.004
 31025,-0.00110891,0.,0.00223639,0.00197239,0.,0.00021959,0.00002785,0.
 ,0.07244053,-0.01233541,0.03610814,0.,-0.01730514,-0.06211149,0.,-0.02
 746016,-0.41532743,0.,0.01052971,-0.07374591,0.,-0.00277797,0.00999960
 ,0.,0.01251804,-0.00436285,0.,0.00180928,-0.00021741,0.,0.00024818,0.0
 0018201,0.,0.02582581,0.50955216,0.,0.,0.01056681,0.,0.,0.00988892,0.,
 0.,-0.04295663,0.,0.,0.00604652,0.,0.,0.00308336,0.,0.,-0.00210700,0.,
 0.,-0.00556312,0.,0.,0.00018372,0.,0.,0.02416237,0.00437635,0.00683025
 ,0.,-0.00260346,0.00308103,0.,-0.05213365,-0.03802935,0.,-0.37746102,-
 0.17375188,0.,-0.02265784,-0.00904641,0.,0.00095383,0.00277909,0.,-0.0
 0063255,-0.00189301,0.,-0.00022995,0.00033740,0.,0.00712464,0.00410570
 ,0.,0.43716276,0.00682421,-0.00350014,0.,0.00483198,-0.00243499,0.,0.0
 0796884,0.00452464,0.,-0.17374549,-0.17681199,0.,-0.05504318,-0.024946
 41,0.,0.00103102,-0.00598853,0.,0.00057024,0.00066807,0.,-0.00212546,0
 .00026526,0.,0.00172148,0.01090539,0.,0.21124489,0.19321152,0.,0.,-0.0
 0129719,0.,0.,0.00470624,0.,0.,0.00783569,0.,0.,-0.03512913,0.,0.,0.00
 783475,0.,0.,0.00470469,0.,0.,-0.00100610,0.,0.,-0.00100545,0.,0.,-0.0
 0254781,0.,0.,0.01810592,0.02113375,-0.02934028,0.,0.00274263,0.013418
 57,0.,0.00220773,-0.00899664,0.,-0.03349612,0.03004279,0.,-0.35151160,
 0.13056710,0.,-0.07243893,0.02899571,0.,0.00031069,0.00019536,0.,0.002
 03293,0.00192664,0.,0.00024039,0.00678108,0.,0.01248715,0.00100803,0.,
 0.42265275,-0.01360902,0.00666419,0.,-0.00020350,-0.00279407,0.,-0.010
 74940,-0.00077148,0.,0.05918651,-0.03996104,0.,0.13801833,-0.14162989,
 0.,-0.00056299,0.01809557,0.,-0.00002480,0.00009080,0.,0.00209092,-0.0
 0001376,0.,0.00263365,-0.00519380,0.,-0.00137077,0.00554369,0.,-0.1763
 5879,0.15934967,0.,0.,0.01056620,0.,0.,-0.00210680,0.,0.,0.00308221,0.
 ,0.,0.00604824,0.,0.,-0.04295288,0.,0.,0.00988962,0.,0.,0.00018414,0.,
 0.,-0.00556348,0.,0.,0.00062996,0.,0.,-0.00254705,0.,0.,0.02415719,-0.
 34173795,-0.15397564,0.,-0.00936652,-0.02059869,0.,0.00157321,0.005039
 53,0.,0.00590404,0.00746501,0.,0.00476547,0.00195930,0.,-0.06412830,-0
 .02643122,0.,-0.00017589,-0.00022865,0.,0.00235449,-0.00131095,0.,0.00
 004795,-0.00193914,0.,-0.00638626,-0.00428658,0.,-0.00636137,0.0009498
 7,0.,0.41351110,-0.15397043,-0.16392438,0.,-0.05805142,-0.03697302,0.,
 0.00379860,0.00072090,0.,0.00746382,-0.00271066,0.,0.00319776,-0.00247
 236,0.,0.01101958,0.01779041,0.,0.00015085,0.00324249,0.,-0.00168923,0
 .00071376,0.,-0.00275016,-0.00578840,0.,-0.00428694,-0.00143651,0.,0.0
 0176042,0.00062012,0.,0.19335717,0.19021765,0.,0.,-0.04804531,0.,0.,0.
 01165694,0.,0.,0.00584789,0.,0.,-0.00114245,0.,0.,0.00584912,0.,0.,0.0
 1165680,0.,0.,-0.00291124,0.,0.,-0.00291222,0.,0.,-0.00138708,0.,0.,0.
 00034546,0.,0.,-0.00138734,0.,0.,0.02242942\\0.00010393,0.00007027,0.,
 -0.00008895,0.00004008,0.,0.00009100,0.00003126,0.,-0.00009966,-0.0000
 6977,0.,0.00007213,0.00007474,0.,-0.00000090,-0.00009858,0.,-0.0000019
 5,-0.00002384,0.,-0.00002234,0.00000997,0.,0.00000287,-0.00003220,0.,0
 .00001879,0.00001339,0.,-0.00002401,0.00001622,0.,-0.00005093,-0.00003
 153,0.\\\@


 In the beginning the Universe was created.
 This has made a lot of people very angry
 and been widely regarded as a bad move.
                               -D.Adams
 Job cpu time:       0 days  0 hours  8 minutes  3.5 seconds.
 Elapsed time:       0 days  0 hours  8 minutes  4.1 seconds.
 File lengths (MBytes):  RWF=    154 Int=      0 D2E=      0 Chk=      7 Scr=      1
 Normal termination of Gaussian 16 at Thu Jan 30 14:38:14 2025.
