 Entering Gaussian System, Link 0=g16
 Initial command:
 /sw/cluster/pub/apps//g16/l1.exe "/data/natrosa/28476/Gau-90641.inp" -scrdir="/data/natrosa/28476/"
 Entering Link 1 = /sw/cluster/pub/apps//g16/l1.exe PID=     90642.
  
 Copyright (c) 1988,1990,1992,1993,1995,1998,2003,2009,2016,
            Gaussian, Inc.  All Rights Reserved.
  
 This is part of the Gaussian(R) 16 program.  It is based on
 the Gaussian(R) 09 system (copyright 2009, Gaussian, Inc.),
 the Gaussian(R) 03 system (copyright 2003, Gaussian, Inc.),
 the Gaussian(R) 98 system (copyright 1998, Gaussian, Inc.),
 the Gaussian(R) 94 system (copyright 1995, Gaussian, Inc.),
 the Gaussian 92(TM) system (copyright 1992, Gaussian, Inc.),
 the Gaussian 90(TM) system (copyright 1990, Gaussian, Inc.),
 the Gaussian 88(TM) system (copyright 1988, Gaussian, Inc.),
 the Gaussian 86(TM) system (copyright 1986, Carnegie Mellon
 University), and the Gaussian 82(TM) system (copyright 1983,
 Carnegie Mellon University). Gaussian is a federally registered
 trademark of Gaussian, Inc.
  
 This software contains proprietary and confidential information,
 including trade secrets, belonging to Gaussian, Inc.
  
 This software is provided under written license and may be
 used, copied, transmitted, or stored only in accord with that
 written license.
  
 The following legend is applicable only to US Government
 contracts under FAR:
  
                    RESTRICTED RIGHTS LEGEND
  
 Use, reproduction and disclosure by the US Government is
 subject to restrictions as set forth in subparagraphs (a)
 and (c) of the Commercial Computer Software - Restricted
 Rights clause in FAR 52.227-19.
  
 Gaussian, Inc.
 340 Quinnipiac St., Bldg. 40, Wallingford CT 06492
  
  
 ---------------------------------------------------------------
 Warning -- This program may not be used in any manner that
 competes with the business of Gaussian, Inc. or will provide
 assistance to any competitor of Gaussian, Inc.  The licensee
 of this program is prohibited from giving any competitor of
 Gaussian, Inc. access to this program.  By using this program,
 the user acknowledges that Gaussian, Inc. is engaged in the
 business of creating and licensing software in the field of
 computational chemistry and represents and warrants to the
 licensee that it is not a competitor of Gaussian, Inc. and that
 it will not use this program in any manner prohibited above.
 ---------------------------------------------------------------
  

 Cite this work as:
 Gaussian 16, Revision A.03,
 M. J. Frisch, G. W. Trucks, H. B. Schlegel, G. E. Scuseria, 
 M. A. Robb, J. R. Cheeseman, G. Scalmani, V. Barone, 
 G. A. Petersson, H. Nakatsuji, X. Li, M. Caricato, A. V. Marenich, 
 J. Bloino, B. G. Janesko, R. Gomperts, B. Mennucci, H. P. Hratchian, 
 J. V. Ortiz, A. F. Izmaylov, J. L. Sonnenberg, D. Williams-Young, 
 F. Ding, F. Lipparini, F. Egidi, J. Goings, B. Peng, A. Petrone, 
 T. Henderson, D. Ranasinghe, V. G. Zakrzewski, J. Gao, N. Rega, 
 G. Zheng, W. Liang, M. Hada, M. Ehara, K. Toyota, R. Fukuda, 
 J. Hasegawa, M. Ishida, T. Nakajima, Y. Honda, O. Kitao, H. Nakai, 
 T. Vreven, K. Throssell, J. A. Montgomery, Jr., J. E. Peralta, 
 F. Ogliaro, M. J. Bearpark, J. J. Heyd, E. N. Brothers, K. N. Kudin, 
 V. N. Staroverov, T. A. Keith, R. Kobayashi, J. Normand, 
 K. Raghavachari, A. P. Rendell, J. C. Burant, S. S. Iyengar, 
 J. Tomasi, M. Cossi, J. M. Millam, M. Klene, C. Adamo, R. Cammi, 
 J. W. Ochterski, R. L. Martin, K. Morokuma, O. Farkas, 
 J. B. Foresman, and D. J. Fox, Gaussian, Inc., Wallingford CT, 2016.
 
 ******************************************
 Gaussian 16:  ES64L-G16RevA.03 25-Dec-2016
                30-Jan-2025 
 ******************************************
 %chk=1-2-4-5-TtFB-ANI.chk
 --------------------------------------------------------
 #p opt freq PBE1PBE/6-311++G(d,p) density=current nosymm
 --------------------------------------------------------
 1/18=20,19=15,26=3,38=1/1,3;
 2/9=110,12=2,15=1,17=6,18=5,40=1/2;
 3/5=4,6=6,7=1111,11=2,25=1,30=1,71=1,74=-13/1,2,3;
 4//1;
 5/5=2,38=5/2;
 6/7=2,8=2,9=2,10=2,22=-1,28=1/1;
 7/30=1/1,2,3,16;
 1/18=20,19=15,26=3/3(2);
 2/9=110,15=1/2;
 99//99;
 2/9=110,15=1/2;
 3/5=4,6=6,7=1111,11=2,25=1,30=1,71=1,74=-13/1,2,3;
 4/5=5,16=3,69=1/1;
 5/5=2,38=5/2;
 7/30=1/1,2,3,16;
 1/18=20,19=15,26=3/3(-5);
 2/9=110,15=1/2;
 6/7=2,8=2,9=2,10=2,19=2,22=-1,28=1/1;
 99/9=1/99;
 Leave Link    1 at Thu Jan 30 13:05:19 2025, MaxMem=           0 cpu:               0.0 elap:               0.0
 (Enter /sw/cluster/pub/apps//g16/l101.exe)
 ---------------
 1 2 4 5 TtFB SP
 ---------------
 Symbolic Z-matrix:
 Charge = -1 Multiplicity = 2
 C                     1.1963    0.68499   0. 
 C                     1.20863  -0.69785   0. 
 C                     0.00498  -1.37869  0. 
 C                    -1.1963   -0.68499   0. 
 C                    -1.20863   0.69785   0. 
 C                    -0.00498   1.37869  0. 
 H                     2.14668  -1.23914   0. 
 H                    -2.14668   1.23914   0. 
 F                    -0.00683  -2.71086   0. 
 F                    -2.3442   -1.36107   0. 
 F                     0.00683   2.71086   0. 
 F                     2.3442    1.36107   0. 
 
 ITRead=  0  0  0  0  0  0  0  0  0  0  0  0
 MicOpt= -1 -1 -1 -1 -1 -1 -1 -1 -1 -1 -1 -1
 NAtoms=     12 NQM=       12 NQMF=       0 NMMI=      0 NMMIF=      0
                NMic=       0 NMicF=      0.
                    Isotopes and Nuclear Properties:
 (Nuclear quadrupole moments (NQMom) in fm**2, nuclear magnetic moments (NMagM)
  in nuclear magnetons)

  Atom         1           2           3           4           5           6           7           8           9          10
 IAtWgt=          12          12          12          12          12          12           1           1          19          19
 AtmWgt=  12.0000000  12.0000000  12.0000000  12.0000000  12.0000000  12.0000000   1.0078250   1.0078250  18.9984032  18.9984032
 NucSpn=           0           0           0           0           0           0           1           1           1           1
 AtZEff=  -0.0000000  -0.0000000  -0.0000000  -0.0000000  -0.0000000  -0.0000000  -0.0000000  -0.0000000  -0.0000000  -0.0000000
 NQMom=    0.0000000   0.0000000   0.0000000   0.0000000   0.0000000   0.0000000   0.0000000   0.0000000   0.0000000   0.0000000
 NMagM=    0.0000000   0.0000000   0.0000000   0.0000000   0.0000000   0.0000000   2.7928460   2.7928460   2.6288670   2.6288670
 AtZNuc=   6.0000000   6.0000000   6.0000000   6.0000000   6.0000000   6.0000000   1.0000000   1.0000000   9.0000000   9.0000000

  Atom        11          12
 IAtWgt=          19          19
 AtmWgt=  18.9984032  18.9984032
 NucSpn=           1           1
 AtZEff=  -0.0000000  -0.0000000
 NQMom=    0.0000000   0.0000000
 NMagM=    2.6288670   2.6288670
 AtZNuc=   9.0000000   9.0000000
 Leave Link  101 at Thu Jan 30 13:05:19 2025, MaxMem=   104857600 cpu:               0.0 elap:               0.0
 (Enter /sw/cluster/pub/apps//g16/l103.exe)

 GradGradGradGradGradGradGradGradGradGradGradGradGradGradGradGradGradGrad
 Berny optimization.
 Initialization pass.
                           ----------------------------
                           !    Initial Parameters    !
                           ! (Angstroms and Degrees)  !
 --------------------------                            --------------------------
 ! Name  Definition              Value          Derivative Info.                !
 --------------------------------------------------------------------------------
 ! R1    R(1,2)                  1.3829         estimate D2E/DX2                !
 ! R2    R(1,6)                  1.3872         estimate D2E/DX2                !
 ! R3    R(1,12)                 1.3322         estimate D2E/DX2                !
 ! R4    R(2,3)                  1.3829         estimate D2E/DX2                !
 ! R5    R(2,7)                  1.083          estimate D2E/DX2                !
 ! R6    R(3,4)                  1.3872         estimate D2E/DX2                !
 ! R7    R(3,9)                  1.3322         estimate D2E/DX2                !
 ! R8    R(4,5)                  1.3829         estimate D2E/DX2                !
 ! R9    R(4,10)                 1.3322         estimate D2E/DX2                !
 ! R10   R(5,6)                  1.3829         estimate D2E/DX2                !
 ! R11   R(5,8)                  1.083          estimate D2E/DX2                !
 ! R12   R(6,11)                 1.3322         estimate D2E/DX2                !
 ! A1    A(2,1,6)              120.5157         estimate D2E/DX2                !
 ! A2    A(2,1,12)             119.986          estimate D2E/DX2                !
 ! A3    A(6,1,12)             119.4983         estimate D2E/DX2                !
 ! A4    A(1,2,3)              118.9834         estimate D2E/DX2                !
 ! A5    A(1,2,7)              120.4973         estimate D2E/DX2                !
 ! A6    A(3,2,7)              120.5193         estimate D2E/DX2                !
 ! A7    A(2,3,4)              120.5009         estimate D2E/DX2                !
 ! A8    A(2,3,9)              120.0022         estimate D2E/DX2                !
 ! A9    A(4,3,9)              119.497          estimate D2E/DX2                !
 ! A10   A(3,4,5)              120.5157         estimate D2E/DX2                !
 ! A11   A(3,4,10)             119.4983         estimate D2E/DX2                !
 ! A12   A(5,4,10)             119.986          estimate D2E/DX2                !
 ! A13   A(4,5,6)              118.9834         estimate D2E/DX2                !
 ! A14   A(4,5,8)              120.4973         estimate D2E/DX2                !
 ! A15   A(6,5,8)              120.5193         estimate D2E/DX2                !
 ! A16   A(1,6,5)              120.5009         estimate D2E/DX2                !
 ! A17   A(1,6,11)             119.497          estimate D2E/DX2                !
 ! A18   A(5,6,11)             120.0022         estimate D2E/DX2                !
 ! D1    D(6,1,2,3)              0.0            estimate D2E/DX2                !
 ! D2    D(6,1,2,7)            180.0            estimate D2E/DX2                !
 ! D3    D(12,1,2,3)           180.0            estimate D2E/DX2                !
 ! D4    D(12,1,2,7)             0.0            estimate D2E/DX2                !
 ! D5    D(2,1,6,5)              0.0            estimate D2E/DX2                !
 ! D6    D(2,1,6,11)           180.0            estimate D2E/DX2                !
 ! D7    D(12,1,6,5)           180.0            estimate D2E/DX2                !
 ! D8    D(12,1,6,11)            0.0            estimate D2E/DX2                !
 ! D9    D(1,2,3,4)              0.0            estimate D2E/DX2                !
 ! D10   D(1,2,3,9)            180.0            estimate D2E/DX2                !
 ! D11   D(7,2,3,4)            180.0            estimate D2E/DX2                !
 ! D12   D(7,2,3,9)              0.0            estimate D2E/DX2                !
 ! D13   D(2,3,4,5)              0.0            estimate D2E/DX2                !
 ! D14   D(2,3,4,10)           180.0            estimate D2E/DX2                !
 ! D15   D(9,3,4,5)            180.0            estimate D2E/DX2                !
 ! D16   D(9,3,4,10)             0.0            estimate D2E/DX2                !
 ! D17   D(3,4,5,6)              0.0            estimate D2E/DX2                !
 ! D18   D(3,4,5,8)            180.0            estimate D2E/DX2                !
 ! D19   D(10,4,5,6)           180.0            estimate D2E/DX2                !
 ! D20   D(10,4,5,8)             0.0            estimate D2E/DX2                !
 ! D21   D(4,5,6,1)              0.0            estimate D2E/DX2                !
 ! D22   D(4,5,6,11)           180.0            estimate D2E/DX2                !
 ! D23   D(8,5,6,1)            180.0            estimate D2E/DX2                !
 ! D24   D(8,5,6,11)             0.0            estimate D2E/DX2                !
 --------------------------------------------------------------------------------
 Trust Radius=3.00D-01 FncErr=1.00D-07 GrdErr=1.00D-06 EigMax=2.50D+02 EigMin=1.00D-04
 Number of steps in this run=     64 maximum allowed number of steps=    100.
 GradGradGradGradGradGradGradGradGradGradGradGradGradGradGradGradGradGrad

 Leave Link  103 at Thu Jan 30 13:05:19 2025, MaxMem=   104857600 cpu:               0.0 elap:               0.0
 (Enter /sw/cluster/pub/apps//g16/l202.exe)
                          Input orientation:                          
 ---------------------------------------------------------------------
 Center     Atomic      Atomic             Coordinates (Angstroms)
 Number     Number       Type             X           Y           Z
 ---------------------------------------------------------------------
      1          6           0        1.196299    0.684992    0.000000
      2          6           0        1.208630   -0.697851    0.000000
      3          6           0        0.004982   -1.378686   -0.000000
      4          6           0       -1.196299   -0.684992    0.000000
      5          6           0       -1.208630    0.697851    0.000000
      6          6           0       -0.004982    1.378686   -0.000000
      7          1           0        2.146684   -1.239139    0.000000
      8          1           0       -2.146684    1.239139    0.000000
      9          9           0       -0.006825   -2.710864    0.000000
     10          9           0       -2.344201   -1.361074    0.000000
     11          9           0        0.006825    2.710864    0.000000
     12          9           0        2.344201    1.361074    0.000000
 ---------------------------------------------------------------------
                    Distance matrix (angstroms):
                    1          2          3          4          5
     1  C    0.000000
     2  C    1.382898   0.000000
     3  C    2.382856   1.382861   0.000000
     4  C    2.757060   2.404963   1.387187   0.000000
     5  C    2.404963   2.791260   2.405174   1.382898   0.000000
     6  C    1.387187   2.405174   2.757389   2.382856   1.382861
     7  H    2.146045   1.083022   2.146243   3.388600   3.874282
     8  H    3.388600   3.874282   3.388609   2.146045   1.083022
     9  F    3.602686   2.351500   1.332231   2.349256   3.614371
    10  F    4.089196   3.614205   2.349249   1.332204   2.351318
    11  F    2.349256   3.614371   4.089550   3.602686   2.351500
    12  F    1.332204   2.351318   3.602531   4.089196   3.614205
                    6          7          8          9         10
     6  C    0.000000
     7  H    3.388609   0.000000
     8  H    2.146243   4.957304   0.000000
     9  F    4.089550   2.608367   4.492384   0.000000
    10  F    3.602531   4.492540   2.607704   2.699122   0.000000
    11  F    1.332231   4.492384   2.608367   5.421745   4.701915
    12  F    2.349249   2.607704   4.492540   4.701915   5.421366
                   11         12
    11  F    0.000000
    12  F    2.699122   0.000000
 Symmetry turned off by external request.
 Stoichiometry    C6H2F4(1-,2)
 Framework group  C2H[SGH(C6H2F4)]
 Deg. of freedom    11
 Full point group                 C2H     NOp   4
 Rotational constants (GHZ):           2.2906170           1.0352885           0.7130237
 Leave Link  202 at Thu Jan 30 13:05:19 2025, MaxMem=   104857600 cpu:               0.0 elap:               0.0
 (Enter /sw/cluster/pub/apps//g16/l301.exe)
 Standard basis: 6-311++G(d,p) (5D, 7F)
 Ernie: Thresh=  0.10000D-02 Tol=  0.10000D-05 Strict=F.
   234 basis functions,   378 primitive gaussians,   244 cartesian basis functions
    38 alpha electrons       37 beta electrons
       nuclear repulsion energy       519.8789663184 Hartrees.
 IExCor= 1009 DFT=T Ex+Corr=PBE1PBE ExCW=0 ScaHFX=  0.250000
 ScaDFX=  0.750000  0.750000  1.000000  1.000000 ScalE2=  1.000000  1.000000
 IRadAn=      5 IRanWt=     -1 IRanGd=            0 ICorTp=0 IEmpDi=  4
 NAtoms=   12 NActive=   12 NUniq=   12 SFac= 1.00D+00 NAtFMM=   60 NAOKFM=F Big=F
 Integral buffers will be    131072 words long.
 Raffenetti 2 integral format.
 Two-electron integral symmetry is turned off.
 Leave Link  301 at Thu Jan 30 13:05:19 2025, MaxMem=   104857600 cpu:               0.0 elap:               0.0
 (Enter /sw/cluster/pub/apps//g16/l302.exe)
 NPDir=0 NMtPBC=     1 NCelOv=     1 NCel=       1 NClECP=     1 NCelD=      1
         NCelK=      1 NCelE2=     1 NClLst=     1 CellRange=     0.0.
 One-electron integrals computed using PRISM.
 NBasis=   234 RedAO= T EigKep=  2.20D-06  NBF=   234
 NBsUse=   234 1.00D-06 EigRej= -1.00D+00 NBFU=   234
 Precomputing XC quadrature grid using
 IXCGrd= 4 IRadAn=           5 IRanWt=          -1 IRanGd=           0 AccXCQ= 0.00D+00.
 Generated NRdTot=       0 NPtTot=           0 NUsed=           0 NTot=          32
 NSgBfM=   244   244   244   244   244 MxSgAt=    12 MxSgA2=    12.
 Leave Link  302 at Thu Jan 30 13:05:19 2025, MaxMem=   104857600 cpu:               0.1 elap:               0.1
 (Enter /sw/cluster/pub/apps//g16/l303.exe)
 DipDrv:  MaxL=1.
 Leave Link  303 at Thu Jan 30 13:05:19 2025, MaxMem=   104857600 cpu:               0.0 elap:               0.0
 (Enter /sw/cluster/pub/apps//g16/l401.exe)
 ExpMin= 3.60D-02 ExpMax= 1.14D+04 ExpMxC= 1.72D+03 IAcc=3 IRadAn=         5 AccDes= 0.00D+00
 Harris functional with IExCor= 1009 and IRadAn=       5 diagonalized for initial guess.
 HarFok:  IExCor= 1009 AccDes= 0.00D+00 IRadAn=         5 IDoV= 1 UseB2=F ITyADJ=14
 ICtDFT=  3500011 ScaDFX=  1.000000  1.000000  1.000000  1.000000
 FoFCou: FMM=F IPFlag=           0 FMFlag=      100000 FMFlg1=           0
         NFxFlg=           0 DoJE=T BraDBF=F KetDBF=T FulRan=T
         wScrn=  0.000000 ICntrl=       500 IOpCl=  0 I1Cent=   200000004 NGrid=           0
         NMat0=    1 NMatS0=      1 NMatT0=    0 NMatD0=    1 NMtDS0=    0 NMtDT0=    0
 Symmetry not used in FoFCou.
 Harris En= -628.889568425534    
 JPrj=0 DoOrth=F DoCkMO=F.
 Initial guess <Sx>= 0.0000 <Sy>= 0.0000 <Sz>= 0.5000 <S**2>= 0.7500 S= 0.5000
 Leave Link  401 at Thu Jan 30 13:05:20 2025, MaxMem=   104857600 cpu:               1.3 elap:               1.3
 (Enter /sw/cluster/pub/apps//g16/l502.exe)
 Two-electron integral symmetry not used.
 UHF open shell SCF:
 Using DIIS extrapolation, IDIIS=  1040.
 NGot=   104857600 LenX=   104735324 LenY=   104675347
 Requested convergence on RMS density matrix=1.00D-08 within 128 cycles.
 Requested convergence on MAX density matrix=1.00D-06.
 Requested convergence on             energy=1.00D-06.
 No special actions if energy rises.
 Fock matrices will be formed incrementally for  20 cycles.

 Cycle   1  Pass 1  IDiag  1:
 FoFJK:  IHMeth= 1 ICntrl=       0 DoSepK=F KAlg= 0 I1Cent=           0 FoldK=F
 IRaf= 930000000 NMat=       1 IRICut=       1 DoRegI=T DoRafI=F ISym2E= 0 IDoP0=0 IntGTp=1.
 FoFCou: FMM=F IPFlag=           0 FMFlag=      100000 FMFlg1=           0
         NFxFlg=           0 DoJE=F BraDBF=F KetDBF=F FulRan=T
         wScrn=  0.000000 ICntrl=         0 IOpCl=  1 I1Cent=           0 NGrid=           0
         NMat0=    1 NMatS0=      1 NMatT0=    0 NMatD0=    1 NMtDS0=    0 NMtDT0=    0
 Symmetry not used in FoFCou.
 E= -628.483315010548    
 DIIS: error= 3.87D-02 at cycle   1 NSaved=   1.
 NSaved= 1 IEnMin= 1 EnMin= -628.483315010548     IErMin= 1 ErrMin= 3.87D-02
 ErrMax= 3.87D-02  0.00D+00 EMaxC= 1.00D-01 BMatC= 9.53D-01 BMatP= 9.53D-01
 IDIUse=3 WtCom= 6.13D-01 WtEn= 3.87D-01
 Coeff-Com:  0.100D+01
 Coeff-En:   0.100D+01
 Coeff:      0.100D+01
 Gap=     0.048 Goal=   None    Shift=    0.000
 Gap=     0.307 Goal=   None    Shift=    0.000
 GapD=    0.048 DampG=0.250 DampE=0.500 DampFc=0.2500 IDamp=-1.
 Damping current iteration by 2.50D-01
 RMSDP=1.92D+00 MaxDP=1.10D+02              OVMax= 9.97D-01

 Cycle   2  Pass 1  IDiag  1:
 RMSU=  4.74D-01    CP:  2.63D+00
 E= -628.568992818566     Delta-E=       -0.085677808017 Rises=F Damp=T
 DIIS: error= 1.71D-02 at cycle   2 NSaved=   2.
 NSaved= 2 IEnMin= 2 EnMin= -628.568992818566     IErMin= 2 ErrMin= 1.71D-02
 ErrMax= 1.71D-02  0.00D+00 EMaxC= 1.00D-01 BMatC= 2.43D-01 BMatP= 9.53D-01
 IDIUse=3 WtCom= 8.29D-01 WtEn= 1.71D-01
 Coeff-Com: -0.759D+00 0.176D+01
 Coeff-En:   0.000D+00 0.100D+01
 Coeff:     -0.629D+00 0.163D+01
 Gap=     0.005 Goal=   None    Shift=    0.000
 Gap=     0.213 Goal=   None    Shift=    0.000
 RMSDP=1.02D+00 MaxDP=4.58D+01 DE=-8.57D-02 OVMax= 1.65D-01

 Cycle   3  Pass 1  IDiag  1:
 RMSU=  2.00D-01    CP:  3.00D+00  3.00D+00
 E= -628.680846825793     Delta-E=       -0.111854007227 Rises=F Damp=F
 DIIS: error= 9.71D-03 at cycle   3 NSaved=   3.
 NSaved= 3 IEnMin= 3 EnMin= -628.680846825793     IErMin= 3 ErrMin= 9.71D-03
 ErrMax= 9.71D-03  0.00D+00 EMaxC= 1.00D-01 BMatC= 5.72D-02 BMatP= 2.43D-01
 IDIUse=3 WtCom= 9.03D-01 WtEn= 9.71D-02
 Coeff-Com: -0.117D+00 0.487D+00 0.630D+00
 Coeff-En:   0.000D+00 0.000D+00 0.100D+01
 Coeff:     -0.106D+00 0.439D+00 0.666D+00
 Gap=    -0.002 Goal=   None    Shift=    0.000
 Gap=     0.254 Goal=   None    Shift=    0.000
 RMSDP=1.49D+00 MaxDP=7.31D+01 DE=-1.12D-01 OVMax= 1.00D+00

 Cycle   4  Pass 1  IDiag  1:
 RMSU=  9.33D-03    CP:  1.08D+00  4.44D-04  1.04D-03
 E= -628.676561051954     Delta-E=        0.004285773839 Rises=F Damp=F
 DIIS: error= 9.72D-03 at cycle   4 NSaved=   4.
 NSaved= 4 IEnMin= 3 EnMin= -628.680846825793     IErMin= 3 ErrMin= 9.71D-03
 ErrMax= 9.72D-03  0.00D+00 EMaxC= 1.00D-01 BMatC= 6.67D-02 BMatP= 5.72D-02
 IDIUse=3 WtCom= 9.21D-02 WtEn= 9.08D-01
 Coeff-Com: -0.212D+00 0.376D+00 0.374D+00 0.461D+00
 Coeff-En:   0.000D+00 0.000D+00 0.575D+00 0.425D+00
 Coeff:     -0.195D-01 0.347D-01 0.557D+00 0.428D+00
 Gap=     0.002 Goal=   None    Shift=    0.000
 Gap=     0.239 Goal=   None    Shift=    0.000
 RMSDP=2.65D-03 MaxDP=1.96D-01 DE= 4.29D-03 OVMax= 4.83D-02

 Cycle   5  Pass 1  IDiag  1:
 RMSU=  1.86D-03    CP:  1.03D+00  1.38D-04  1.10D-03  9.51D-01
 E= -628.690115086078     Delta-E=       -0.013554034123 Rises=F Damp=F
 DIIS: error= 6.55D-03 at cycle   5 NSaved=   5.
 NSaved= 5 IEnMin= 5 EnMin= -628.690115086078     IErMin= 5 ErrMin= 6.55D-03
 ErrMax= 6.55D-03  0.00D+00 EMaxC= 1.00D-01 BMatC= 2.40D-02 BMatP= 5.72D-02
 IDIUse=3 WtCom= 9.34D-01 WtEn= 6.55D-02
 Coeff-Com: -0.260D-01 0.504D-01 0.361D+00-0.112D+00 0.727D+00
 Coeff-En:   0.000D+00 0.000D+00 0.000D+00 0.000D+00 0.100D+01
 Coeff:     -0.243D-01 0.471D-01 0.338D+00-0.105D+00 0.745D+00
 Gap=     0.012 Goal=   None    Shift=    0.000
 Gap=     0.214 Goal=   None    Shift=    0.000
 RMSDP=9.04D-04 MaxDP=4.78D-02 DE=-1.36D-02 OVMax= 2.26D-02

 Cycle   6  Pass 1  IDiag  1:
 RMSU=  5.48D-04    CP:  1.03D+00  2.23D-04  1.02D-03  1.01D+00  1.26D+00
 E= -628.693959003266     Delta-E=       -0.003843917189 Rises=F Damp=F
 DIIS: error= 3.86D-03 at cycle   6 NSaved=   6.
 NSaved= 6 IEnMin= 6 EnMin= -628.693959003266     IErMin= 6 ErrMin= 3.86D-03
 ErrMax= 3.86D-03  0.00D+00 EMaxC= 1.00D-01 BMatC= 8.18D-03 BMatP= 2.40D-02
 IDIUse=3 WtCom= 9.61D-01 WtEn= 3.86D-02
 Coeff-Com: -0.212D-01 0.372D-01 0.220D+00-0.300D+00 0.651D+00 0.412D+00
 Coeff-En:   0.000D+00 0.000D+00 0.000D+00 0.000D+00 0.000D+00 0.100D+01
 Coeff:     -0.204D-01 0.358D-01 0.212D+00-0.288D+00 0.626D+00 0.435D+00
 Gap=     0.018 Goal=   None    Shift=    0.000
 Gap=     0.205 Goal=   None    Shift=    0.000
 RMSDP=7.32D-04 MaxDP=4.87D-02 DE=-3.84D-03 OVMax= 1.36D-02

 Cycle   7  Pass 1  IDiag  1:
 RMSU=  1.47D-04    CP:  1.02D+00  1.51D-04  1.04D-03  1.02D+00  1.55D+00
                    CP:  1.34D+00
 E= -628.695655096115     Delta-E=       -0.001696092848 Rises=F Damp=F
 DIIS: error= 2.40D-03 at cycle   7 NSaved=   7.
 NSaved= 7 IEnMin= 7 EnMin= -628.695655096115     IErMin= 7 ErrMin= 2.40D-03
 ErrMax= 2.40D-03  0.00D+00 EMaxC= 1.00D-01 BMatC= 3.01D-03 BMatP= 8.18D-03
 IDIUse=3 WtCom= 9.76D-01 WtEn= 2.40D-02
 Coeff-Com:  0.335D-03 0.445D-02 0.166D-01-0.847D-01-0.598D-01-0.952D+00
 Coeff-Com:  0.207D+01
 Coeff-En:   0.000D+00 0.000D+00 0.000D+00 0.000D+00 0.000D+00 0.000D+00
 Coeff-En:   0.100D+01
 Coeff:      0.327D-03 0.434D-02 0.162D-01-0.827D-01-0.584D-01-0.929D+00
 Coeff:      0.205D+01
 Gap=     0.029 Goal=   None    Shift=    0.000
 Gap=     0.193 Goal=   None    Shift=    0.000
 RMSDP=1.09D-03 MaxDP=6.39D-02 DE=-1.70D-03 OVMax= 1.88D-02

 Cycle   8  Pass 1  IDiag  1:
 RMSU=  6.71D-05    CP:  1.01D+00  9.33D-05  1.03D-03  1.05D+00  1.97D+00
                    CP:  2.13D+00  2.84D+00
 E= -628.696688498063     Delta-E=       -0.001033401948 Rises=F Damp=F
 DIIS: error= 2.10D-04 at cycle   8 NSaved=   8.
 NSaved= 8 IEnMin= 8 EnMin= -628.696688498063     IErMin= 8 ErrMin= 2.10D-04
 ErrMax= 2.10D-04  0.00D+00 EMaxC= 1.00D-01 BMatC= 1.89D-05 BMatP= 3.01D-03
 IDIUse=3 WtCom= 9.98D-01 WtEn= 2.10D-03
 Coeff-Com:  0.150D-02-0.116D-02-0.975D-03 0.156D-01-0.368D-01-0.173D+00
 Coeff-Com:  0.208D+00 0.988D+00
 Coeff-En:   0.000D+00 0.000D+00 0.000D+00 0.000D+00 0.000D+00 0.000D+00
 Coeff-En:   0.000D+00 0.100D+01
 Coeff:      0.150D-02-0.116D-02-0.973D-03 0.156D-01-0.368D-01-0.173D+00
 Coeff:      0.207D+00 0.988D+00
 Gap=     0.030 Goal=   None    Shift=    0.000
 Gap=     0.192 Goal=   None    Shift=    0.000
 RMSDP=9.47D-05 MaxDP=6.23D-03 DE=-1.03D-03 OVMax= 1.62D-03

 Cycle   9  Pass 1  IDiag  1:
 RMSU=  3.27D-05    CP:  1.01D+00  8.69D-05  1.03D-03  1.05D+00  1.99D+00
                    CP:  2.20D+00  3.00D+00  1.31D+00
 E= -628.696697490351     Delta-E=       -0.000008992288 Rises=F Damp=F
 DIIS: error= 6.58D-05 at cycle   9 NSaved=   9.
 NSaved= 9 IEnMin= 9 EnMin= -628.696697490351     IErMin= 9 ErrMin= 6.58D-05
 ErrMax= 6.58D-05  0.00D+00 EMaxC= 1.00D-01 BMatC= 9.74D-07 BMatP= 1.89D-05
 IDIUse=1 WtCom= 1.00D+00 WtEn= 0.00D+00
 Coeff-Com:  0.103D-02-0.206D-02 0.509D-02 0.757D-02 0.165D-01 0.811D-01
 Coeff-Com: -0.203D+00 0.108D+00 0.986D+00
 Coeff:      0.103D-02-0.206D-02 0.509D-02 0.757D-02 0.165D-01 0.811D-01
 Coeff:     -0.203D+00 0.108D+00 0.986D+00
 Gap=     0.030 Goal=   None    Shift=    0.000
 Gap=     0.192 Goal=   None    Shift=    0.000
 RMSDP=4.34D-05 MaxDP=3.34D-03 DE=-8.99D-06 OVMax= 1.62D-03

 Cycle  10  Pass 1  IDiag  1:
 RMSU=  1.67D-05    CP:  1.01D+00  8.87D-05  1.03D-03  1.05D+00  1.98D+00
                    CP:  2.17D+00  3.00D+00  1.41D+00  1.04D+00
 E= -628.696697545702     Delta-E=       -0.000000055351 Rises=F Damp=F
 DIIS: error= 6.72D-05 at cycle  10 NSaved=  10.
 NSaved=10 IEnMin=10 EnMin= -628.696697545702     IErMin= 9 ErrMin= 6.58D-05
 ErrMax= 6.72D-05  0.00D+00 EMaxC= 1.00D-01 BMatC= 2.35D-06 BMatP= 9.74D-07
 IDIUse=1 WtCom= 1.00D+00 WtEn= 0.00D+00
 Coeff-Com: -0.130D-02 0.186D-02-0.348D-03-0.166D-02-0.313D-03 0.868D-03
 Coeff-Com: -0.919D-02-0.133D+00-0.101D-01 0.115D+01
 Coeff:     -0.130D-02 0.186D-02-0.348D-03-0.166D-02-0.313D-03 0.868D-03
 Coeff:     -0.919D-02-0.133D+00-0.101D-01 0.115D+01
 Gap=     0.030 Goal=   None    Shift=    0.000
 Gap=     0.192 Goal=   None    Shift=    0.000
 RMSDP=1.91D-05 MaxDP=9.69D-04 DE=-5.54D-08 OVMax= 4.44D-04

 Cycle  11  Pass 1  IDiag  1:
 RMSU=  1.03D-05    CP:  1.01D+00  8.67D-05  1.02D-03  1.05D+00  1.98D+00
                    CP:  2.18D+00  3.00D+00  1.41D+00  1.19D+00  1.42D+00
 E= -628.696698397398     Delta-E=       -0.000000851696 Rises=F Damp=F
 DIIS: error= 5.14D-06 at cycle  11 NSaved=  11.
 NSaved=11 IEnMin=11 EnMin= -628.696698397398     IErMin=11 ErrMin= 5.14D-06
 ErrMax= 5.14D-06  0.00D+00 EMaxC= 1.00D-01 BMatC= 9.37D-09 BMatP= 9.74D-07
 IDIUse=1 WtCom= 1.00D+00 WtEn= 0.00D+00
 Coeff-Com: -0.483D-04 0.860D-04-0.124D-03 0.273D-04-0.388D-03-0.416D-02
 Coeff-Com:  0.102D-01 0.573D-02-0.385D-01-0.164D+00 0.119D+01
 Coeff:     -0.483D-04 0.860D-04-0.124D-03 0.273D-04-0.388D-03-0.416D-02
 Coeff:      0.102D-01 0.573D-02-0.385D-01-0.164D+00 0.119D+01
 Gap=     0.030 Goal=   None    Shift=    0.000
 Gap=     0.192 Goal=   None    Shift=    0.000
 RMSDP=3.66D-06 MaxDP=1.87D-04 DE=-8.52D-07 OVMax= 2.35D-04

 Cycle  12  Pass 1  IDiag  1:
 RMSU=  1.72D-06    CP:  1.01D+00  8.63D-05  1.02D-03  1.05D+00  1.98D+00
                    CP:  2.18D+00  3.00D+00  1.41D+00  1.20D+00  1.50D+00
                    CP:  1.11D+00
 E= -628.696698406812     Delta-E=       -0.000000009414 Rises=F Damp=F
 DIIS: error= 1.60D-06 at cycle  12 NSaved=  12.
 NSaved=12 IEnMin=12 EnMin= -628.696698406812     IErMin=12 ErrMin= 1.60D-06
 ErrMax= 1.60D-06  0.00D+00 EMaxC= 1.00D-01 BMatC= 1.06D-09 BMatP= 9.37D-09
 IDIUse=1 WtCom= 1.00D+00 WtEn= 0.00D+00
 Coeff-Com:  0.242D-04-0.298D-04 0.226D-05-0.675D-06-0.493D-04-0.743D-03
 Coeff-Com:  0.289D-02 0.482D-02-0.124D-01-0.735D-01 0.287D+00 0.792D+00
 Coeff:      0.242D-04-0.298D-04 0.226D-05-0.675D-06-0.493D-04-0.743D-03
 Coeff:      0.289D-02 0.482D-02-0.124D-01-0.735D-01 0.287D+00 0.792D+00
 Gap=     0.030 Goal=   None    Shift=    0.000
 Gap=     0.192 Goal=   None    Shift=    0.000
 RMSDP=5.92D-07 MaxDP=2.78D-05 DE=-9.41D-09 OVMax= 4.95D-05

 Cycle  13  Pass 1  IDiag  1:
 RMSU=  3.23D-07    CP:  1.01D+00  8.63D-05  1.02D-03  1.05D+00  1.98D+00
                    CP:  2.18D+00  3.00D+00  1.41D+00  1.20D+00  1.51D+00
                    CP:  1.11D+00  1.11D+00
 E= -628.696698407388     Delta-E=       -0.000000000576 Rises=F Damp=F
 DIIS: error= 6.11D-07 at cycle  13 NSaved=  13.
 NSaved=13 IEnMin=13 EnMin= -628.696698407388     IErMin=13 ErrMin= 6.11D-07
 ErrMax= 6.11D-07  0.00D+00 EMaxC= 1.00D-01 BMatC= 2.58D-10 BMatP= 1.06D-09
 IDIUse=1 WtCom= 1.00D+00 WtEn= 0.00D+00
 Coeff-Com:  0.176D-04-0.255D-04 0.242D-04-0.352D-05 0.341D-04 0.386D-03
 Coeff-Com: -0.185D-03 0.172D-02-0.522D-03-0.146D-01-0.485D-01 0.474D+00
 Coeff-Com:  0.587D+00
 Coeff:      0.176D-04-0.255D-04 0.242D-04-0.352D-05 0.341D-04 0.386D-03
 Coeff:     -0.185D-03 0.172D-02-0.522D-03-0.146D-01-0.485D-01 0.474D+00
 Coeff:      0.587D+00
 Gap=     0.030 Goal=   None    Shift=    0.000
 Gap=     0.192 Goal=   None    Shift=    0.000
 RMSDP=2.04D-07 MaxDP=7.81D-06 DE=-5.76D-10 OVMax= 2.02D-05

 Cycle  14  Pass 1  IDiag  1:
 RMSU=  1.49D-07    CP:  1.01D+00  8.63D-05  1.02D-03  1.05D+00  1.98D+00
                    CP:  2.18D+00  3.00D+00  1.41D+00  1.20D+00  1.51D+00
                    CP:  1.11D+00  1.16D+00  9.64D-01
 E= -628.696698407470     Delta-E=       -0.000000000082 Rises=F Damp=F
 DIIS: error= 2.75D-07 at cycle  14 NSaved=  14.
 NSaved=14 IEnMin=14 EnMin= -628.696698407470     IErMin=14 ErrMin= 2.75D-07
 ErrMax= 2.75D-07  0.00D+00 EMaxC= 1.00D-01 BMatC= 4.46D-11 BMatP= 2.58D-10
 IDIUse=1 WtCom= 1.00D+00 WtEn= 0.00D+00
 Coeff-Com: -0.543D-05 0.674D-05-0.159D-05 0.245D-04-0.713D-05 0.140D-03
 Coeff-Com: -0.427D-03-0.352D-04 0.218D-02 0.193D-02-0.367D-01-0.372D-01
 Coeff-Com:  0.796D-01 0.991D+00
 Coeff:     -0.543D-05 0.674D-05-0.159D-05 0.245D-04-0.713D-05 0.140D-03
 Coeff:     -0.427D-03-0.352D-04 0.218D-02 0.193D-02-0.367D-01-0.372D-01
 Coeff:      0.796D-01 0.991D+00
 Gap=     0.030 Goal=   None    Shift=    0.000
 Gap=     0.192 Goal=   None    Shift=    0.000
 RMSDP=1.41D-07 MaxDP=6.02D-06 DE=-8.23D-11 OVMax= 8.52D-06

 Cycle  15  Pass 1  IDiag  1:
 RMSU=  5.48D-08    CP:  1.01D+00  8.62D-05  1.02D-03  1.05D+00  1.98D+00
                    CP:  2.18D+00  3.00D+00  1.41D+00  1.20D+00  1.51D+00
                    CP:  1.11D+00  1.18D+00  1.08D+00  1.22D+00
 E= -628.696698407492     Delta-E=       -0.000000000022 Rises=F Damp=F
 DIIS: error= 4.59D-08 at cycle  15 NSaved=  15.
 NSaved=15 IEnMin=15 EnMin= -628.696698407492     IErMin=15 ErrMin= 4.59D-08
 ErrMax= 4.59D-08  0.00D+00 EMaxC= 1.00D-01 BMatC= 1.30D-12 BMatP= 4.46D-11
 IDIUse=1 WtCom= 1.00D+00 WtEn= 0.00D+00
 Coeff-Com: -0.349D-05 0.462D-05-0.185D-05 0.101D-04-0.559D-05 0.322D-04
 Coeff-Com: -0.153D-03-0.134D-03 0.900D-03 0.156D-02-0.119D-01-0.404D-01
 Coeff-Com: -0.297D-02 0.379D+00 0.674D+00
 Coeff:     -0.349D-05 0.462D-05-0.185D-05 0.101D-04-0.559D-05 0.322D-04
 Coeff:     -0.153D-03-0.134D-03 0.900D-03 0.156D-02-0.119D-01-0.404D-01
 Coeff:     -0.297D-02 0.379D+00 0.674D+00
 Gap=     0.030 Goal=   None    Shift=    0.000
 Gap=     0.192 Goal=   None    Shift=    0.000
 RMSDP=4.66D-08 MaxDP=2.02D-06 DE=-2.16D-11 OVMax= 1.38D-06

 Cycle  16  Pass 1  IDiag  1:
 RMSU=  2.22D-08    CP:  1.01D+00  8.62D-05  1.02D-03  1.05D+00  1.98D+00
                    CP:  2.18D+00  3.00D+00  1.41D+00  1.20D+00  1.51D+00
                    CP:  1.11D+00  1.18D+00  1.10D+00  1.30D+00  1.66D+00
 E= -628.696698407490     Delta-E=        0.000000000002 Rises=F Damp=F
 DIIS: error= 2.73D-08 at cycle  16 NSaved=  16.
 NSaved=16 IEnMin=15 EnMin= -628.696698407492     IErMin=16 ErrMin= 2.73D-08
 ErrMax= 2.73D-08  0.00D+00 EMaxC= 1.00D-01 BMatC= 3.83D-13 BMatP= 1.30D-12
 IDIUse=1 WtCom= 1.00D+00 WtEn= 0.00D+00
 Coeff-Com: -0.233D-06 0.459D-06-0.205D-06-0.285D-05-0.646D-06-0.251D-04
 Coeff-Com:  0.525D-04-0.808D-04-0.203D-03 0.387D-03 0.435D-02-0.883D-02
 Coeff-Com: -0.233D-01-0.103D+00 0.365D+00 0.766D+00
 Coeff:     -0.233D-06 0.459D-06-0.205D-06-0.285D-05-0.646D-06-0.251D-04
 Coeff:      0.525D-04-0.808D-04-0.203D-03 0.387D-03 0.435D-02-0.883D-02
 Coeff:     -0.233D-01-0.103D+00 0.365D+00 0.766D+00
 Gap=     0.030 Goal=   None    Shift=    0.000
 Gap=     0.192 Goal=   None    Shift=    0.000
 RMSDP=6.63D-08 MaxDP=2.99D-06 DE= 2.27D-12 OVMax= 8.61D-07

 Cycle  17  Pass 1  IDiag  1:
 RMSU=  9.74D-09    CP:  1.01D+00  8.62D-05  1.02D-03  1.05D+00  1.98D+00
                    CP:  2.18D+00  3.00D+00  1.41D+00  1.20D+00  1.51D+00
                    CP:  1.11D+00  1.19D+00  1.13D+00  1.41D+00  2.64D+00
                    CP:  2.46D+00
 E= -628.696698407491     Delta-E=       -0.000000000001 Rises=F Damp=F
 DIIS: error= 3.24D-09 at cycle  17 NSaved=  17.
 NSaved=17 IEnMin=15 EnMin= -628.696698407492     IErMin=17 ErrMin= 3.24D-09
 ErrMax= 3.24D-09  0.00D+00 EMaxC= 1.00D-01 BMatC= 6.98D-15 BMatP= 3.83D-13
 IDIUse=1 WtCom= 1.00D+00 WtEn= 0.00D+00
 Coeff-Com:  0.194D-06-0.249D-06 0.134D-06-0.104D-05 0.422D-06-0.432D-05
 Coeff-Com:  0.126D-04-0.450D-06-0.710D-04-0.733D-05 0.821D-03 0.130D-02
 Coeff-Com: -0.650D-03-0.209D-01-0.996D-02 0.249D-01 0.100D+01
 Coeff:      0.194D-06-0.249D-06 0.134D-06-0.104D-05 0.422D-06-0.432D-05
 Coeff:      0.126D-04-0.450D-06-0.710D-04-0.733D-05 0.821D-03 0.130D-02
 Coeff:     -0.650D-03-0.209D-01-0.996D-02 0.249D-01 0.100D+01
 Gap=     0.030 Goal=   None    Shift=    0.000
 Gap=     0.192 Goal=   None    Shift=    0.000
 RMSDP=8.17D-08 MaxDP=3.71D-06 DE=-1.36D-12 OVMax= 6.60D-07

 Cycle  18  Pass 1  IDiag  1:
 RMSU=  5.57D-08    CP:  1.01D+00  8.62D-05  1.02D-03  1.05D+00  1.98D+00
                    CP:  2.18D+00  3.00D+00  1.41D+00  1.20D+00  1.51D+00
                    CP:  1.11D+00  1.19D+00  1.15D+00  1.52D+00  3.00D+00
                    CP:  3.00D+00  2.08D+00
 E= -628.696698407490     Delta-E=        0.000000000001 Rises=F Damp=F
 DIIS: error= 4.37D-09 at cycle  18 NSaved=  18.
 NSaved=18 IEnMin=15 EnMin= -628.696698407492     IErMin=17 ErrMin= 3.24D-09
 ErrMax= 4.37D-09  0.00D+00 EMaxC= 1.00D-01 BMatC= 7.45D-15 BMatP= 6.98D-15
 IDIUse=1 WtCom= 1.00D+00 WtEn= 0.00D+00
 Coeff-Com:  0.133D-06-0.183D-06 0.104D-06-0.410D-06 0.341D-06-0.751D-06
 Coeff-Com:  0.341D-05 0.643D-05-0.272D-04-0.366D-04 0.162D-03 0.144D-02
 Coeff-Com:  0.156D-02-0.431D-02-0.348D-01-0.526D-01 0.634D+00 0.455D+00
 Coeff:      0.133D-06-0.183D-06 0.104D-06-0.410D-06 0.341D-06-0.751D-06
 Coeff:      0.341D-05 0.643D-05-0.272D-04-0.366D-04 0.162D-03 0.144D-02
 Coeff:      0.156D-02-0.431D-02-0.348D-01-0.526D-01 0.634D+00 0.455D+00
 Gap=     0.030 Goal=   None    Shift=    0.000
 Gap=     0.192 Goal=   None    Shift=    0.000
 RMSDP=4.86D-08 MaxDP=2.21D-06 DE= 6.82D-13 OVMax= 3.92D-07

 Cycle  19  Pass 1  IDiag  1:
 RMSU=  1.19D-09    CP:  1.01D+00  8.62D-05  1.02D-03  1.05D+00  1.98D+00
                    CP:  2.18D+00  3.00D+00  1.41D+00  1.20D+00  1.51D+00
                    CP:  1.11D+00  1.19D+00  1.16D+00  1.60D+00  3.00D+00
                    CP:  3.00D+00  2.73D+00  1.84D+00
 E= -628.696698407490     Delta-E=        0.000000000000 Rises=F Damp=F
 DIIS: error= 2.43D-09 at cycle  19 NSaved=  19.
 NSaved=19 IEnMin=15 EnMin= -628.696698407492     IErMin=19 ErrMin= 2.43D-09
 ErrMax= 2.43D-09  0.00D+00 EMaxC= 1.00D-01 BMatC= 2.51D-15 BMatP= 6.98D-15
 IDIUse=1 WtCom= 1.00D+00 WtEn= 0.00D+00
 Large coefficients: NSaved= 19 BigCof=    0.00 CofMax=   10.00 Det=-1.72D-15
 Inversion failed.  Reducing to 18 matrices.
 Large coefficients: NSaved= 18 BigCof=    0.00 CofMax=   10.00 Det=-2.08D-15
 Inversion failed.  Reducing to 17 matrices.
 Large coefficients: NSaved= 17 BigCof=    0.00 CofMax=   10.00 Det=-2.13D-15
 Inversion failed.  Reducing to 16 matrices.
 Large coefficients: NSaved= 16 BigCof=    0.00 CofMax=   10.00 Det=-2.34D-15
 Inversion failed.  Reducing to 15 matrices.
 Coeff-Com:  0.359D-07 0.142D-06-0.562D-06 0.183D-05-0.211D-06-0.638D-05
 Coeff-Com: -0.524D-04 0.241D-03 0.816D-03 0.191D-02-0.117D-01-0.338D-01
 Coeff-Com:  0.141D+00 0.244D+00 0.658D+00
 Coeff:      0.359D-07 0.142D-06-0.562D-06 0.183D-05-0.211D-06-0.638D-05
 Coeff:     -0.524D-04 0.241D-03 0.816D-03 0.191D-02-0.117D-01-0.338D-01
 Coeff:      0.141D+00 0.244D+00 0.658D+00
 Gap=     0.030 Goal=   None    Shift=    0.000
 Gap=     0.192 Goal=   None    Shift=    0.000
 RMSDP=7.43D-08 MaxDP=3.37D-06 DE= 4.55D-13 OVMax= 5.98D-07

 Cycle  20  Pass 1  IDiag  1:
 RMSU=  9.71D-09    CP:  1.01D+00  8.62D-05  1.02D-03  1.05D+00  1.98D+00
                    CP:  2.18D+00  3.00D+00  1.41D+00  1.20D+00  1.51D+00
                    CP:  1.11D+00  1.19D+00  1.18D+00  1.71D+00  3.00D+00
                    CP:  3.00D+00  3.00D+00  3.00D+00  1.98D+00
 E= -628.696698407489     Delta-E=        0.000000000001 Rises=F Damp=F
 DIIS: error= 2.72D-09 at cycle  20 NSaved=  16.
 NSaved=16 IEnMin=11 EnMin= -628.696698407492     IErMin=15 ErrMin= 2.43D-09
 ErrMax= 2.72D-09  0.00D+00 EMaxC= 1.00D-01 BMatC= 2.24D-15 BMatP= 2.51D-15
 IDIUse=1 WtCom= 1.00D+00 WtEn= 0.00D+00
 Large coefficients: NSaved= 16 BigCof=    0.00 CofMax=   10.00 Det=-7.59D-17
 Inversion failed.  Reducing to 15 matrices.
 Coeff-Com: -0.191D-06-0.466D-06 0.632D-05 0.352D-05-0.353D-04-0.215D-03
 Coeff-Com:  0.795D-03 0.225D-02 0.699D-02-0.360D-01-0.907D-01 0.181D+00
 Coeff-Com:  0.729D+00 0.299D+01-0.278D+01
 Coeff:     -0.191D-06-0.466D-06 0.632D-05 0.352D-05-0.353D-04-0.215D-03
 Coeff:      0.795D-03 0.225D-02 0.699D-02-0.360D-01-0.907D-01 0.181D+00
 Coeff:      0.729D+00 0.299D+01-0.278D+01
 Gap=     0.030 Goal=   None    Shift=    0.000
 Gap=     0.192 Goal=   None    Shift=    0.000
 RMSDP=2.56D-07 MaxDP=1.16D-05 DE= 6.82D-13 OVMax= 2.06D-06

 Cycle  21  Pass 1  IDiag  1:
 Restarting incremental Fock formation.
 E= -628.696698407492     Delta-E=       -0.000000000003 Rises=F Damp=F
 DIIS: error= 1.73D-09 at cycle  21 NSaved=  16.
 NSaved=16 IEnMin=10 EnMin= -628.696698407492     IErMin=16 ErrMin= 1.73D-09
 ErrMax= 1.73D-09  0.00D+00 EMaxC= 1.00D-01 BMatC= 1.13D-15 BMatP= 2.24D-15
 IDIUse=1 WtCom= 1.00D+00 WtEn= 0.00D+00
 Large coefficients: NSaved= 16 BigCof=    0.00 CofMax=   10.00 Det=-4.25D-17
 Inversion failed.  Reducing to 15 matrices.
 Coeff-Com:  0.313D-06-0.214D-05 0.459D-05 0.267D-05-0.364D-05-0.141D-03
 Coeff-Com: -0.998D-04-0.269D-02 0.209D-01 0.116D-01-0.188D+00-0.186D+00
 Coeff-Com: -0.240D+00-0.115D+01 0.274D+01
 Coeff:      0.313D-06-0.214D-05 0.459D-05 0.267D-05-0.364D-05-0.141D-03
 Coeff:     -0.998D-04-0.269D-02 0.209D-01 0.116D-01-0.188D+00-0.186D+00
 Coeff:     -0.240D+00-0.115D+01 0.274D+01
 Gap=     0.030 Goal=   None    Shift=    0.000
 Gap=     0.192 Goal=   None    Shift=    0.000
 RMSDP=3.63D-07 MaxDP=1.65D-05 DE=-2.73D-12 OVMax= 2.92D-06

 Cycle  22  Pass 1  IDiag  1:
 RMSU=  3.63D-07    CP:  1.00D+00
 E= -628.696698407491     Delta-E=        0.000000000000 Rises=F Damp=F
 DIIS: error= 9.86D-10 at cycle  22 NSaved=  16.
 NSaved=16 IEnMin= 9 EnMin= -628.696698407492     IErMin=16 ErrMin= 9.86D-10
 ErrMax= 9.86D-10  0.00D+00 EMaxC= 1.00D-01 BMatC= 3.13D-16 BMatP= 1.13D-15
 IDIUse=1 WtCom= 1.00D+00 WtEn= 0.00D+00
 Large coefficients: NSaved= 16 BigCof=    0.00 CofMax=   10.00 Det=-1.45D-17
 Inversion failed.  Reducing to 15 matrices.
 Coeff-Com: -0.106D-05-0.206D-05 0.728D-05 0.729D-04-0.285D-03-0.217D-03
 Coeff-Com: -0.137D-02 0.902D-02 0.220D-02 0.194D-01-0.744D-01-0.530D+00
 Coeff-Com:  0.862D+00-0.765D+00 0.148D+01
 Coeff:     -0.106D-05-0.206D-05 0.728D-05 0.729D-04-0.285D-03-0.217D-03
 Coeff:     -0.137D-02 0.902D-02 0.220D-02 0.194D-01-0.744D-01-0.530D+00
 Coeff:      0.862D+00-0.765D+00 0.148D+01
 Gap=     0.030 Goal=   None    Shift=    0.000
 Gap=     0.192 Goal=   None    Shift=    0.000
 RMSDP=5.57D-08 MaxDP=2.53D-06 DE= 4.55D-13 OVMax= 4.51D-07

 Cycle  23  Pass 1  IDiag  1:
 RMSU=  3.04D-09    CP:  1.00D+00  1.15D+00
 E= -628.696698407491     Delta-E=        0.000000000001 Rises=F Damp=F
 DIIS: error= 6.85D-10 at cycle  23 NSaved=  16.
 NSaved=16 IEnMin= 8 EnMin= -628.696698407492     IErMin=16 ErrMin= 6.85D-10
 ErrMax= 6.85D-10  0.00D+00 EMaxC= 1.00D-01 BMatC= 1.38D-16 BMatP= 3.13D-16
 IDIUse=1 WtCom= 1.00D+00 WtEn= 0.00D+00
 Large coefficients: NSaved= 16 BigCof=    0.00 CofMax=   10.00 Det=-1.43D-17
 Inversion failed.  Reducing to 15 matrices.
 Coeff-Com: -0.146D-05-0.336D-06-0.904D-05 0.693D-04 0.200D-03-0.952D-04
 Coeff-Com: -0.171D-02-0.783D-02 0.462D-01 0.516D-01 0.575D-01 0.262D+00
 Coeff-Com: -0.563D+00-0.750D+00 0.190D+01
 Coeff:     -0.146D-05-0.336D-06-0.904D-05 0.693D-04 0.200D-03-0.952D-04
 Coeff:     -0.171D-02-0.783D-02 0.462D-01 0.516D-01 0.575D-01 0.262D+00
 Coeff:     -0.563D+00-0.750D+00 0.190D+01
 Gap=     0.030 Goal=   None    Shift=    0.000
 Gap=     0.192 Goal=   None    Shift=    0.000
 RMSDP=1.91D-08 MaxDP=8.77D-07 DE= 9.09D-13 OVMax= 1.72D-07

 Cycle  24  Pass 1  IDiag  1:
 RMSU=  2.51D-09    CP:  1.00D+00  1.21D+00  1.01D+00
 E= -628.696698407491     Delta-E=       -0.000000000000 Rises=F Damp=F
 DIIS: error= 2.68D-10 at cycle  24 NSaved=  16.
 NSaved=16 IEnMin= 7 EnMin= -628.696698407492     IErMin=16 ErrMin= 2.68D-10
 ErrMax= 2.68D-10  0.00D+00 EMaxC= 1.00D-01 BMatC= 2.51D-17 BMatP= 1.38D-16
 IDIUse=1 WtCom= 1.00D+00 WtEn= 0.00D+00
 Large coefficients: NSaved= 16 BigCof=    0.00 CofMax=   10.00 Det=-7.44D-18
 Inversion failed.  Reducing to 15 matrices.
 Coeff-Com:  0.251D-06-0.261D-05 0.622D-04 0.661D-04-0.289D-03-0.204D-02
 Coeff-Com: -0.353D-02 0.206D-01 0.443D-01 0.165D+00-0.184D+00 0.450D-01
 Coeff-Com: -0.467D+00 0.803D-01 0.130D+01
 Coeff:      0.251D-06-0.261D-05 0.622D-04 0.661D-04-0.289D-03-0.204D-02
 Coeff:     -0.353D-02 0.206D-01 0.443D-01 0.165D+00-0.184D+00 0.450D-01
 Coeff:     -0.467D+00 0.803D-01 0.130D+01
 Gap=     0.030 Goal=   None    Shift=    0.000
 Gap=     0.192 Goal=   None    Shift=    0.000
 RMSDP=6.45D-09 MaxDP=2.94D-07 DE=-4.55D-13 OVMax= 6.69D-08

 SCF Done:  E(UPBE1PBE) =  -628.696698407     A.U. after   24 cycles
            NFock= 24  Conv=0.65D-08     -V/T= 2.0020
 <Sx>= 0.0000 <Sy>= 0.0000 <Sz>= 0.5000 <S**2>= 0.7555 S= 0.5028
 <L.S>=  0.00000000000    
 KE= 6.274417609705D+02 PE=-2.540752736060D+03 EE= 7.647353103632D+02
 Annihilation of the first spin contaminant:
 S**2 before annihilation     0.7555,   after     0.7500
 Leave Link  502 at Thu Jan 30 13:07:08 2025, MaxMem=   104857600 cpu:             108.2 elap:             108.3
 (Enter /sw/cluster/pub/apps//g16/l601.exe)
 Copying SCF densities to generalized density rwf, IOpCl= 1 IROHF=0.

 **********************************************************************

            Population analysis using the SCF density.

 **********************************************************************

 Alpha  occ. eigenvalues --  -24.62619 -24.62618 -24.62617 -24.62617 -10.12913
 Alpha  occ. eigenvalues --  -10.12911 -10.12850 -10.12849 -10.03875 -10.03874
 Alpha  occ. eigenvalues --   -1.11894  -1.11849  -1.10587  -1.10554  -0.72438
 Alpha  occ. eigenvalues --   -0.61517  -0.60538  -0.50466  -0.49107  -0.43231
 Alpha  occ. eigenvalues --   -0.42240  -0.40798  -0.38043  -0.35614  -0.34305
 Alpha  occ. eigenvalues --   -0.34043  -0.32158  -0.31730  -0.31604  -0.29436
 Alpha  occ. eigenvalues --   -0.28411  -0.25402  -0.22011  -0.21487  -0.19508
 Alpha  occ. eigenvalues --   -0.10791  -0.08239   0.08845
 Alpha virt. eigenvalues --    0.11836   0.12070   0.15531   0.16011   0.17737
 Alpha virt. eigenvalues --    0.18536   0.19840   0.20039   0.21013   0.21929
 Alpha virt. eigenvalues --    0.22606   0.23682   0.24288   0.24983   0.25582
 Alpha virt. eigenvalues --    0.25659   0.27017   0.27088   0.27612   0.28138
 Alpha virt. eigenvalues --    0.28330   0.28475   0.31246   0.31326   0.32881
 Alpha virt. eigenvalues --    0.33621   0.34172   0.34241   0.34999   0.36124
 Alpha virt. eigenvalues --    0.40722   0.40866   0.43367   0.44318   0.44383
 Alpha virt. eigenvalues --    0.45042   0.47115   0.47364   0.47646   0.49598
 Alpha virt. eigenvalues --    0.51192   0.51303   0.51451   0.52974   0.53609
 Alpha virt. eigenvalues --    0.54984   0.55475   0.57234   0.57850   0.59465
 Alpha virt. eigenvalues --    0.59828   0.61941   0.65170   0.66837   0.68003
 Alpha virt. eigenvalues --    0.70389   0.73008   0.74452   0.74621   0.75338
 Alpha virt. eigenvalues --    0.77280   0.77575   0.80388   0.81585   0.87819
 Alpha virt. eigenvalues --    0.89665   0.90621   0.91028   0.92303   0.96082
 Alpha virt. eigenvalues --    0.99580   1.03442   1.04706   1.05444   1.08595
 Alpha virt. eigenvalues --    1.10388   1.12427   1.15574   1.17877   1.19193
 Alpha virt. eigenvalues --    1.20095   1.20233   1.25092   1.31395   1.32094
 Alpha virt. eigenvalues --    1.34702   1.39452   1.43425   1.48947   1.55338
 Alpha virt. eigenvalues --    1.56336   1.60182   1.60762   1.60932   1.61139
 Alpha virt. eigenvalues --    1.61944   1.62312   1.62628   1.69987   1.70319
 Alpha virt. eigenvalues --    1.70847   1.72914   1.74314   1.74462   1.74969
 Alpha virt. eigenvalues --    1.83730   1.85018   1.88462   1.91850   1.94286
 Alpha virt. eigenvalues --    1.94877   2.04186   2.06900   2.08448   2.14573
 Alpha virt. eigenvalues --    2.16055   2.17663   2.19350   2.20162   2.22246
 Alpha virt. eigenvalues --    2.27014   2.28799   2.30702   2.34073   2.34401
 Alpha virt. eigenvalues --    2.42069   2.46799   2.48741   2.59168   2.64772
 Alpha virt. eigenvalues --    2.78389   2.80584   2.85979   2.89810   2.90597
 Alpha virt. eigenvalues --    2.91818   2.97198   3.00519   3.04454   3.07146
 Alpha virt. eigenvalues --    3.27912   3.28822   3.32750   3.34651   3.38477
 Alpha virt. eigenvalues --    3.47436   3.55226   3.66363   3.74275   3.93117
 Alpha virt. eigenvalues --    3.94508   3.94853   3.95306   3.96375   3.96916
 Alpha virt. eigenvalues --    3.97216   4.02612   4.04650   4.04840   4.14505
 Alpha virt. eigenvalues --    4.15159   4.18413   4.19841   4.20707   4.21491
 Alpha virt. eigenvalues --    4.26400   4.34411   4.39782   4.41935   4.96243
 Alpha virt. eigenvalues --    5.01359   5.08491   5.13260   5.14423   6.49036
 Alpha virt. eigenvalues --    6.51609   6.54752   6.56301   6.59718   6.62089
 Alpha virt. eigenvalues --    6.68421   6.72259   6.82000   6.96057   7.04886
 Alpha virt. eigenvalues --    7.08205  23.75386  24.13490  24.21283  24.30762
 Alpha virt. eigenvalues --   24.39827  24.47698  67.09180  67.10329  67.13716
 Alpha virt. eigenvalues --   67.15686
  Beta  occ. eigenvalues --  -24.62613 -24.62612 -24.62611 -24.62611 -10.12814
  Beta  occ. eigenvalues --  -10.12813 -10.12753 -10.12753 -10.03363 -10.03362
  Beta  occ. eigenvalues --   -1.11839  -1.11798  -1.10559  -1.10527  -0.71832
  Beta  occ. eigenvalues --   -0.60632  -0.60004  -0.49582  -0.49021  -0.43059
  Beta  occ. eigenvalues --   -0.42004  -0.40644  -0.37954  -0.35081  -0.33980
  Beta  occ. eigenvalues --   -0.33970  -0.31955  -0.31607  -0.31232  -0.29348
  Beta  occ. eigenvalues --   -0.28003  -0.25328  -0.21820  -0.21151  -0.17962
  Beta  occ. eigenvalues --   -0.07674  -0.06722
  Beta virt. eigenvalues --    0.12444   0.12749   0.15768   0.16339   0.17054
  Beta virt. eigenvalues --    0.17996   0.19058   0.20257   0.20836   0.22282
  Beta virt. eigenvalues --    0.22313   0.23023   0.24096   0.24870   0.25360
  Beta virt. eigenvalues --    0.26175   0.27246   0.27325   0.27467   0.27876
  Beta virt. eigenvalues --    0.28483   0.28983   0.29188   0.31544   0.31593
  Beta virt. eigenvalues --    0.33175   0.33910   0.35167   0.35542   0.36386
  Beta virt. eigenvalues --    0.37140   0.41082   0.41135   0.43861   0.44873
  Beta virt. eigenvalues --    0.45132   0.45288   0.47323   0.47539   0.47842
  Beta virt. eigenvalues --    0.49901   0.51387   0.51629   0.51827   0.53228
  Beta virt. eigenvalues --    0.53709   0.55233   0.56311   0.57460   0.58177
  Beta virt. eigenvalues --    0.59595   0.60161   0.62338   0.65457   0.66975
  Beta virt. eigenvalues --    0.68889   0.71521   0.73741   0.75237   0.75683
  Beta virt. eigenvalues --    0.76221   0.77554   0.79860   0.80681   0.82050
  Beta virt. eigenvalues --    0.88825   0.90200   0.90996   0.91445   0.92787
  Beta virt. eigenvalues --    0.96877   0.99816   1.04531   1.05076   1.05570
  Beta virt. eigenvalues --    1.09005   1.11116   1.12628   1.16781   1.18178
  Beta virt. eigenvalues --    1.20147   1.20407   1.21275   1.25285   1.32640
  Beta virt. eigenvalues --    1.32886   1.35166   1.40277   1.44199   1.49346
  Beta virt. eigenvalues --    1.55511   1.56382   1.60352   1.60790   1.61118
  Beta virt. eigenvalues --    1.61340   1.61997   1.62688   1.63161   1.70089
  Beta virt. eigenvalues --    1.70434   1.70913   1.73313   1.74495   1.74835
  Beta virt. eigenvalues --    1.75973   1.83782   1.85589   1.88844   1.92090
  Beta virt. eigenvalues --    1.94744   1.95454   2.05552   2.07641   2.10220
  Beta virt. eigenvalues --    2.14855   2.16290   2.19062   2.19456   2.20243
  Beta virt. eigenvalues --    2.22783   2.28227   2.28845   2.30825   2.34395
  Beta virt. eigenvalues --    2.34775   2.42370   2.47684   2.50062   2.59286
  Beta virt. eigenvalues --    2.65106   2.78833   2.81660   2.86195   2.90164
  Beta virt. eigenvalues --    2.91253   2.92143   2.99171   3.00752   3.05111
  Beta virt. eigenvalues --    3.09375   3.28973   3.29264   3.32843   3.34875
  Beta virt. eigenvalues --    3.38611   3.47570   3.55459   3.66552   3.74548
  Beta virt. eigenvalues --    3.93290   3.94777   3.94888   3.95349   3.96421
  Beta virt. eigenvalues --    3.96965   3.97524   4.02667   4.04741   4.05447
  Beta virt. eigenvalues --    4.14583   4.15232   4.18880   4.19916   4.20713
  Beta virt. eigenvalues --    4.21585   4.26417   4.34666   4.39855   4.42409
  Beta virt. eigenvalues --    4.96328   5.01455   5.09138   5.13324   5.14500
  Beta virt. eigenvalues --    6.49097   6.51669   6.54811   6.56361   6.59728
  Beta virt. eigenvalues --    6.62099   6.68427   6.72264   6.82034   6.96088
  Beta virt. eigenvalues --    7.04918   7.08248  23.75577  24.13593  24.21563
  Beta virt. eigenvalues --   24.30870  24.40227  24.48030  67.09185  67.10334
  Beta virt. eigenvalues --   67.13721  67.15692
          Condensed to atoms (all electrons):
               1          2          3          4          5          6
     1  C   10.933216  -0.590254   0.792561  -1.281639  -2.114183  -1.546216
     2  C   -0.590254  12.479932  -0.591310  -2.114183  -1.405612  -2.114645
     3  C    0.792561  -0.591310  10.933969  -1.546216  -2.114645  -1.280445
     4  C   -1.281639  -2.114183  -1.546216  10.933216  -0.590254   0.792561
     5  C   -2.114183  -1.405612  -2.114645  -0.590254  12.479932  -0.591310
     6  C   -1.546216  -2.114645  -1.280445   0.792561  -0.591310  10.933969
     7  H   -0.089709   0.554185  -0.089760  -0.046097  -0.000189  -0.046122
     8  H   -0.046097  -0.000189  -0.046122  -0.089709   0.554185  -0.089760
     9  F    0.017556  -0.256033   0.600506  -0.371243   0.001205  -0.033821
    10  F   -0.033833   0.001248  -0.371224   0.600511  -0.256121   0.017618
    11  F   -0.371243   0.001205  -0.033821   0.017556  -0.256033   0.600506
    12  F    0.600511  -0.256121   0.017618  -0.033833   0.001248  -0.371224
               7          8          9         10         11         12
     1  C   -0.089709  -0.046097   0.017556  -0.033833  -0.371243   0.600511
     2  C    0.554185  -0.000189  -0.256033   0.001248   0.001205  -0.256121
     3  C   -0.089760  -0.046122   0.600506  -0.371224  -0.033821   0.017618
     4  C   -0.046097  -0.089709  -0.371243   0.600511   0.017556  -0.033833
     5  C   -0.000189   0.554185   0.001205  -0.256121  -0.256033   0.001248
     6  C   -0.046122  -0.089760  -0.033821   0.017618   0.600506  -0.371224
     7  H    0.560469   0.001522  -0.023764  -0.000452  -0.000452  -0.023783
     8  H    0.001522   0.560469  -0.000452  -0.023783  -0.023764  -0.000452
     9  F   -0.023764  -0.000452   9.283514   0.010319   0.000238  -0.000921
    10  F   -0.000452  -0.023783   0.010319   9.283448  -0.000921   0.000239
    11  F   -0.000452  -0.023764   0.000238  -0.000921   9.283514   0.010319
    12  F   -0.023783  -0.000452  -0.000921   0.000239   0.010319   9.283448
          Atomic-Atomic Spin Densities.
               1          2          3          4          5          6
     1  C    0.373798  -0.387395   0.098614   0.080510  -0.301647   0.205565
     2  C   -0.387395   1.374987  -0.387327  -0.301647   0.437355  -0.301602
     3  C    0.098614  -0.387327   0.373712   0.205565  -0.301602   0.080479
     4  C    0.080510  -0.301647   0.205565   0.373798  -0.387395   0.098614
     5  C   -0.301647   0.437355  -0.301602  -0.387395   1.374987  -0.387327
     6  C    0.205565  -0.301602   0.080479   0.098614  -0.387327   0.373712
     7  H   -0.020269   0.038787  -0.020252   0.005524  -0.007049   0.005531
     8  H    0.005524  -0.007049   0.005531  -0.020269   0.038787  -0.020252
     9  F   -0.004988   0.038357  -0.037848  -0.022303   0.015618  -0.004440
    10  F   -0.004442   0.015623  -0.022302  -0.037853   0.038363  -0.004991
    11  F   -0.022303   0.015618  -0.004440  -0.004988   0.038357  -0.037848
    12  F   -0.037853   0.038363  -0.004991  -0.004442   0.015623  -0.022302
               7          8          9         10         11         12
     1  C   -0.020269   0.005524  -0.004988  -0.004442  -0.022303  -0.037853
     2  C    0.038787  -0.007049   0.038357   0.015623   0.015618   0.038363
     3  C   -0.020252   0.005531  -0.037848  -0.022302  -0.004440  -0.004991
     4  C    0.005524  -0.020269  -0.022303  -0.037853  -0.004988  -0.004442
     5  C   -0.007049   0.038787   0.015618   0.038363   0.038357   0.015623
     6  C    0.005531  -0.020252  -0.004440  -0.004991  -0.037848  -0.022302
     7  H   -0.052909  -0.000274   0.001842   0.000089   0.000089   0.001844
     8  H   -0.000274  -0.052909   0.000089   0.001844   0.001842   0.000089
     9  F    0.001842   0.000089   0.011686   0.003196   0.000021   0.000132
    10  F    0.000089   0.001844   0.003196   0.011685   0.000132   0.000021
    11  F    0.000089   0.001842   0.000021   0.000132   0.011686   0.003196
    12  F    0.001844   0.000089   0.000132   0.000021   0.003196   0.011685
 Mulliken charges and spin densities:
               1          2
     1  C   -0.270668  -0.014887
     2  C    0.291777   0.574071
     3  C   -0.271111  -0.014862
     4  C   -0.270668  -0.014887
     5  C    0.291777   0.574071
     6  C   -0.271111  -0.014862
     7  H    0.204153  -0.047048
     8  H    0.204153  -0.047048
     9  F   -0.227103   0.001361
    10  F   -0.227048   0.001364
    11  F   -0.227103   0.001361
    12  F   -0.227048   0.001364
 Sum of Mulliken charges =  -1.00000   1.00000
 Mulliken charges and spin densities with hydrogens summed into heavy atoms:
               1          2
     1  C   -0.270668  -0.014887
     2  C    0.495930   0.527023
     3  C   -0.271111  -0.014862
     4  C   -0.270668  -0.014887
     5  C    0.495930   0.527023
     6  C   -0.271111  -0.014862
     9  F   -0.227103   0.001361
    10  F   -0.227048   0.001364
    11  F   -0.227103   0.001361
    12  F   -0.227048   0.001364
 Electronic spatial extent (au):  <R**2>=           1386.8275
 Charge=             -1.0000 electrons
 Dipole moment (field-independent basis, Debye):
    X=             -0.0000    Y=              0.0000    Z=              0.0000  Tot=              0.0000
 Quadrupole moment (field-independent basis, Debye-Ang):
   XX=            -69.3327   YY=            -74.4955   ZZ=            -60.4873
   XY=             -4.4704   XZ=             -0.0000   YZ=              0.0000
 Traceless Quadrupole moment (field-independent basis, Debye-Ang):
   XX=             -1.2275   YY=             -6.3904   ZZ=              7.6179
   XY=             -4.4704   XZ=             -0.0000   YZ=              0.0000
 Octapole moment (field-independent basis, Debye-Ang**2):
  XXX=             -0.0000  YYY=              0.0000  ZZZ=              0.0000  XYY=             -0.0000
  XXY=             -0.0000  XXZ=              0.0000  XZZ=             -0.0000  YZZ=              0.0000
  YYZ=              0.0000  XYZ=             -0.0000
 Hexadecapole moment (field-independent basis, Debye-Ang**3):
 XXXX=           -715.9475 YYYY=           -959.0540 ZZZZ=            -78.7087 XXXY=           -119.2434
 XXXZ=             -0.0000 YYYX=            -91.2203 YYYZ=              0.0000 ZZZX=             -0.0000
 ZZZY=              0.0000 XXYY=           -268.3775 XXZZ=           -132.9942 YYZZ=           -154.0103
 XXYZ=              0.0000 YYXZ=             -0.0000 ZZXY=            -18.1924
 N-N= 5.198789663184D+02 E-N=-2.540752736068D+03  KE= 6.274417609705D+02
                          Isotropic Fermi Contact Couplings
        Atom                 a.u.       MegaHertz       Gauss      10(-4) cm-1
     1  C(13)             -0.01072     -12.05359      -4.30102      -4.02064
     2  C(13)              0.01537      17.27810       6.16526       5.76335
     3  C(13)             -0.01072     -12.05489      -4.30148      -4.02108
     4  C(13)             -0.01072     -12.05359      -4.30102      -4.02064
     5  C(13)              0.01537      17.27810       6.16526       5.76335
     6  C(13)             -0.01072     -12.05489      -4.30148      -4.02108
     7  H(1)              -0.00659     -29.45892     -10.51167      -9.82644
     8  H(1)              -0.00659     -29.45892     -10.51167      -9.82644
     9  F(19)             -0.00003      -0.12606      -0.04498      -0.04205
    10  F(19)             -0.00003      -0.12981      -0.04632      -0.04330
    11  F(19)             -0.00003      -0.12606      -0.04498      -0.04205
    12  F(19)             -0.00003      -0.12981      -0.04632      -0.04330
 --------------------------------------------------------
       Center         ----  Spin Dipole Couplings  ----
                      3XX-RR        3YY-RR        3ZZ-RR
 --------------------------------------------------------
     1   Atom       -0.054257     -0.043494      0.097751
     2   Atom       -0.197976     -0.202152      0.400127
     3   Atom       -0.043927     -0.053814      0.097741
     4   Atom       -0.054257     -0.043494      0.097751
     5   Atom       -0.197976     -0.202152      0.400127
     6   Atom       -0.043927     -0.053814      0.097741
     7   Atom        0.009843     -0.018114      0.008271
     8   Atom        0.009843     -0.018114      0.008271
     9   Atom       -0.016809     -0.014274      0.031083
    10   Atom       -0.015896     -0.015167      0.031062
    11   Atom       -0.016809     -0.014274      0.031083
    12   Atom       -0.015896     -0.015167      0.031062
 --------------------------------------------------------
                        XY            XZ            YZ
 --------------------------------------------------------
     1   Atom       -0.002606     -0.000000      0.000000
     2   Atom       -0.003618     -0.000000      0.000000
     3   Atom        0.003360      0.000000      0.000000
     4   Atom       -0.002606      0.000000     -0.000000
     5   Atom       -0.003618     -0.000000      0.000000
     6   Atom        0.003360     -0.000000     -0.000000
     7   Atom       -0.024184      0.000000     -0.000000
     8   Atom       -0.024184      0.000000     -0.000000
     9   Atom        0.001151     -0.000000     -0.000000
    10   Atom        0.001675     -0.000000     -0.000000
    11   Atom        0.001151     -0.000000      0.000000
    12   Atom        0.001675      0.000000      0.000000
 --------------------------------------------------------


 ---------------------------------------------------------------------------------
              Anisotropic Spin Dipole Couplings in Principal Axis System
 ---------------------------------------------------------------------------------

       Atom             a.u.   MegaHertz   Gauss  10(-4) cm-1        Axes

              Baa    -0.0549    -7.361    -2.627    -2.455  0.9747  0.2236  0.0000
     1 C(13)  Bbb    -0.0429    -5.756    -2.054    -1.920 -0.2236  0.9747 -0.0000
              Bcc     0.0978    13.117     4.681     4.375 -0.0000  0.0000  1.0000
 
              Baa    -0.2042   -27.407    -9.780    -9.142  0.5001  0.8660  0.0000
     2 C(13)  Bbb    -0.1959   -26.286    -9.380    -8.768  0.8660 -0.5001  0.0000
              Bcc     0.4001    53.693    19.159    17.910 -0.0000  0.0000  1.0000
 
              Baa    -0.0548    -7.360    -2.626    -2.455 -0.2941  0.9558 -0.0000
     3 C(13)  Bbb    -0.0429    -5.756    -2.054    -1.920  0.9558  0.2941 -0.0000
              Bcc     0.0977    13.116     4.680     4.375  0.0000  0.0000  1.0000
 
              Baa    -0.0549    -7.361    -2.627    -2.455  0.9747  0.2236 -0.0000
     4 C(13)  Bbb    -0.0429    -5.756    -2.054    -1.920 -0.2236  0.9747  0.0000
              Bcc     0.0978    13.117     4.681     4.375  0.0000 -0.0000  1.0000
 
              Baa    -0.2042   -27.407    -9.780    -9.142  0.5001  0.8660 -0.0000
     5 C(13)  Bbb    -0.1959   -26.286    -9.380    -8.768  0.8660 -0.5001  0.0000
              Bcc     0.4001    53.693    19.159    17.910 -0.0000  0.0000  1.0000
 
              Baa    -0.0548    -7.360    -2.626    -2.455 -0.2941  0.9558  0.0000
     6 C(13)  Bbb    -0.0429    -5.756    -2.054    -1.920  0.9558  0.2941  0.0000
              Bcc     0.0977    13.116     4.680     4.375 -0.0000 -0.0000  1.0000
 
              Baa    -0.0321   -17.110    -6.105    -5.707  0.4998  0.8661  0.0000
     7 H(1)   Bbb     0.0083     4.413     1.575     1.472 -0.0000  0.0000  1.0000
              Bcc     0.0238    12.697     4.531     4.235  0.8661 -0.4998  0.0000
 
              Baa    -0.0321   -17.110    -6.105    -5.707  0.4998  0.8661 -0.0000
     8 H(1)   Bbb     0.0083     4.413     1.575     1.472 -0.0000  0.0000  1.0000
              Bcc     0.0238    12.697     4.531     4.235  0.8661 -0.4998  0.0000
 
              Baa    -0.0173    -8.665    -3.092    -2.890  0.9328 -0.3604 -0.0000
     9 F(19)  Bbb    -0.0138    -6.945    -2.478    -2.317  0.3604  0.9328  0.0000
              Bcc     0.0311    15.611     5.570     5.207 -0.0000 -0.0000  1.0000
 
              Baa    -0.0172    -8.661    -3.090    -2.889  0.7787 -0.6274  0.0000
    10 F(19)  Bbb    -0.0138    -6.939    -2.476    -2.315  0.6274  0.7787  0.0000
              Bcc     0.0311    15.600     5.567     5.204 -0.0000 -0.0000  1.0000
 
              Baa    -0.0173    -8.665    -3.092    -2.890  0.9328 -0.3604  0.0000
    11 F(19)  Bbb    -0.0138    -6.945    -2.478    -2.317  0.3604  0.9328 -0.0000
              Bcc     0.0311    15.611     5.570     5.207 -0.0000  0.0000  1.0000
 
              Baa    -0.0172    -8.661    -3.090    -2.889  0.7787 -0.6274  0.0000
    12 F(19)  Bbb    -0.0138    -6.939    -2.476    -2.315  0.6274  0.7787 -0.0000
              Bcc     0.0311    15.600     5.567     5.204  0.0000  0.0000  1.0000
 

 ---------------------------------------------------------------------------------

 No NMR shielding tensors so no spin-rotation constants.
 Leave Link  601 at Thu Jan 30 13:07:09 2025, MaxMem=   104857600 cpu:               0.1 elap:               0.1
 (Enter /sw/cluster/pub/apps//g16/l701.exe)
 ... and contract with generalized density number  0.
 Compute integral first derivatives.
 Leave Link  701 at Thu Jan 30 13:07:09 2025, MaxMem=   104857600 cpu:               0.0 elap:               0.1
 (Enter /sw/cluster/pub/apps//g16/l702.exe)
 L702 exits ... SP integral derivatives will be done elsewhere.
 Leave Link  702 at Thu Jan 30 13:07:09 2025, MaxMem=   104857600 cpu:               0.0 elap:               0.0
 (Enter /sw/cluster/pub/apps//g16/l703.exe)
 Integral derivatives from FoFJK, PRISM(SPDF).
 Compute integral first derivatives, UseDBF=F ICtDFT=           0.
 Calling FoFJK, ICntrl=      2127 FMM=F ISym2X=0 I1Cent= 0 IOpClX= 1 NMat=1 NMatS=1 NMatT=0.
 FoFJK:  IHMeth= 1 ICntrl=    2127 DoSepK=F KAlg= 0 I1Cent=           0 FoldK=F
 IRaf=         0 NMat=       1 IRICut=       1 DoRegI=T DoRafI=F ISym2E= 0 IDoP0=0 IntGTp=1.
 FoFCou: FMM=F IPFlag=           0 FMFlag=      100000 FMFlg1=         800
         NFxFlg=           0 DoJE=F BraDBF=F KetDBF=F FulRan=T
         wScrn=  0.000000 ICntrl=      2127 IOpCl=  1 I1Cent=           0 NGrid=           0
         NMat0=    1 NMatS0=      1 NMatT0=    0 NMatD0=    1 NMtDS0=    0 NMtDT0=    0
 Symmetry not used in FoFCou.
 Leave Link  703 at Thu Jan 30 13:07:22 2025, MaxMem=   104857600 cpu:              13.7 elap:              13.7
 (Enter /sw/cluster/pub/apps//g16/l716.exe)
 Dipole        =-1.46936685D-10 8.23008328D-11 1.03726716D-09
 -------------------------------------------------------------------
 Center     Atomic                   Forces (Hartrees/Bohr)
 Number     Number              X              Y              Z
 -------------------------------------------------------------------
      1        6          -0.045957337    0.030945965   -0.000000000
      2        6           0.043382439   -0.025008277    0.000000000
      3        6          -0.049816503    0.024332072    0.000000000
      4        6           0.045957337   -0.030945965   -0.000000000
      5        6          -0.043382439    0.025008277    0.000000000
      6        6           0.049816503   -0.024332072    0.000000000
      7        1          -0.000098399    0.000040631   -0.000000000
      8        1           0.000098399   -0.000040631   -0.000000000
      9        9           0.002581743   -0.023500174   -0.000000000
     10        9          -0.021669122   -0.009548498    0.000000000
     11        9          -0.002581743    0.023500174   -0.000000000
     12        9           0.021669122    0.009548498    0.000000000
 -------------------------------------------------------------------
 Cartesian Forces:  Max     0.049816503 RMS     0.023298275
 Leave Link  716 at Thu Jan 30 13:07:22 2025, MaxMem=   104857600 cpu:               0.0 elap:               0.0
 (Enter /sw/cluster/pub/apps//g16/l103.exe)

 GradGradGradGradGradGradGradGradGradGradGradGradGradGradGradGradGradGrad
 Berny optimization.
 FormGI is forming the generalized inverse of G from B-inverse, IUseBI=4.
 Internal  Forces:  Max     0.032441146 RMS     0.011775811
 Search for a local minimum.
 Step number   1 out of a maximum of   64
 All quantities printed in internal units (Hartrees-Bohrs-Radians)
 RMS Force = .11776D-01 SwitMx=.10000D-02 MixMth= 1
 Mixed Optimization -- RFO/linear search
 Second derivative matrix not updated -- first step.
 ITU=  0
     Eigenvalues ---    0.02277   0.02277   0.02287   0.02287   0.02296
     Eigenvalues ---    0.02296   0.02315   0.02315   0.02315   0.16000
     Eigenvalues ---    0.16000   0.23000   0.23991   0.25000   0.25000
     Eigenvalues ---    0.25000   0.25000   0.25000   0.35632   0.35632
     Eigenvalues ---    0.43823   0.44082   0.47812   0.48342   0.48576
     Eigenvalues ---    0.48583   0.58982   0.58982   0.58988   0.58988
 RFO step:  Lambda=-1.53006915D-02 EMin= 2.27700693D-02
 Linear search not attempted -- first point.
 Iteration  1 RMS(Cart)=  0.02505663 RMS(Int)=  0.00033707
 Iteration  2 RMS(Cart)=  0.00050715 RMS(Int)=  0.00000010
 Iteration  3 RMS(Cart)=  0.00000012 RMS(Int)=  0.00000000
 ITry= 1 IFail=0 DXMaxC= 5.45D-02 DCOld= 1.00D+10 DXMaxT= 3.00D-01 DXLimC= 3.00D+00 Rises=F
 Variable       Old X    -DE/DX   Delta X   Delta X   Delta X     New X
                                 (Linear)    (Quad)   (Total)
    R1        2.61330   0.03240   0.00000   0.06467   0.06467   2.67797
    R2        2.62140  -0.01632   0.00000  -0.03307  -0.03307   2.58833
    R3        2.51750   0.02352   0.00000   0.03886   0.03886   2.55636
    R4        2.61323   0.03244   0.00000   0.06474   0.06474   2.67796
    R5        2.04661  -0.00011   0.00000  -0.00028  -0.00028   2.04633
    R6        2.62140  -0.01632   0.00000  -0.03307  -0.03307   2.58833
    R7        2.51755   0.02348   0.00000   0.03880   0.03880   2.55635
    R8        2.61330   0.03240   0.00000   0.06467   0.06467   2.67797
    R9        2.51750   0.02352   0.00000   0.03886   0.03886   2.55636
   R10        2.61323   0.03244   0.00000   0.06474   0.06474   2.67796
   R11        2.04661  -0.00011   0.00000  -0.00028  -0.00028   2.04633
   R12        2.51755   0.02348   0.00000   0.03880   0.03880   2.55635
    A1        2.10340   0.00494   0.00000   0.02015   0.02015   2.12355
    A2        2.09415  -0.00596   0.00000  -0.02322  -0.02322   2.07093
    A3        2.08564   0.00102   0.00000   0.00307   0.00307   2.08871
    A4        2.07665  -0.00994   0.00000  -0.04051  -0.04051   2.03614
    A5        2.10307   0.00498   0.00000   0.02034   0.02034   2.12341
    A6        2.10346   0.00495   0.00000   0.02017   0.02017   2.12363
    A7        2.10314   0.00500   0.00000   0.02036   0.02036   2.12349
    A8        2.09443  -0.00601   0.00000  -0.02341  -0.02341   2.07102
    A9        2.08562   0.00101   0.00000   0.00306   0.00306   2.08867
   A10        2.10340   0.00494   0.00000   0.02015   0.02015   2.12355
   A11        2.08564   0.00102   0.00000   0.00307   0.00307   2.08871
   A12        2.09415  -0.00596   0.00000  -0.02322  -0.02322   2.07093
   A13        2.07665  -0.00994   0.00000  -0.04051  -0.04051   2.03614
   A14        2.10307   0.00498   0.00000   0.02034   0.02034   2.12341
   A15        2.10346   0.00495   0.00000   0.02017   0.02017   2.12363
   A16        2.10314   0.00500   0.00000   0.02036   0.02036   2.12349
   A17        2.08562   0.00101   0.00000   0.00306   0.00306   2.08867
   A18        2.09443  -0.00601   0.00000  -0.02341  -0.02341   2.07102
    D1       -0.00000   0.00000   0.00000   0.00000   0.00000   0.00000
    D2        3.14159  -0.00000   0.00000  -0.00000   0.00000   3.14159
    D3        3.14159  -0.00000   0.00000  -0.00000   0.00000   3.14159
    D4        0.00000  -0.00000   0.00000  -0.00000  -0.00000   0.00000
    D5        0.00000  -0.00000   0.00000  -0.00000  -0.00000   0.00000
    D6        3.14159   0.00000   0.00000   0.00000   0.00000   3.14159
    D7        3.14159  -0.00000   0.00000  -0.00000   0.00000   3.14159
    D8       -0.00000   0.00000   0.00000   0.00000   0.00000   0.00000
    D9       -0.00000   0.00000   0.00000   0.00000   0.00000   0.00000
   D10        3.14159  -0.00000   0.00000  -0.00000   0.00000   3.14159
   D11        3.14159   0.00000   0.00000   0.00000   0.00000   3.14159
   D12        0.00000  -0.00000   0.00000  -0.00000  -0.00000   0.00000
   D13        0.00000  -0.00000   0.00000  -0.00000  -0.00000   0.00000
   D14        3.14159  -0.00000   0.00000  -0.00000   0.00000   3.14159
   D15        3.14159   0.00000   0.00000   0.00000   0.00000   3.14159
   D16       -0.00000   0.00000   0.00000   0.00000   0.00000   0.00000
   D17       -0.00000   0.00000   0.00000   0.00000   0.00000   0.00000
   D18        3.14159  -0.00000   0.00000  -0.00000   0.00000   3.14159
   D19        3.14159  -0.00000   0.00000  -0.00000   0.00000   3.14159
   D20        0.00000  -0.00000   0.00000  -0.00000  -0.00000   0.00000
   D21       -0.00000   0.00000   0.00000   0.00000   0.00000   0.00000
   D22        3.14159  -0.00000   0.00000  -0.00000   0.00000   3.14159
   D23        3.14159   0.00000   0.00000   0.00000   0.00000   3.14159
   D24        0.00000  -0.00000   0.00000  -0.00000   0.00000   0.00000
         Item               Value     Threshold  Converged?
 Maximum Force            0.032441     0.000450     NO 
 RMS     Force            0.011776     0.000300     NO 
 Maximum Displacement     0.054483     0.001800     NO 
 RMS     Displacement     0.024912     0.001200     NO 
 Predicted change in Energy=-7.908468D-03
 Lowest energy point so far.  Saving SCF results.
 GradGradGradGradGradGradGradGradGradGradGradGradGradGradGradGradGradGrad

 Leave Link  103 at Thu Jan 30 13:07:22 2025, MaxMem=   104857600 cpu:               0.0 elap:               0.0
 (Enter /sw/cluster/pub/apps//g16/l202.exe)
                          Input orientation:                          
 ---------------------------------------------------------------------
 Center     Atomic      Atomic             Coordinates (Angstroms)
 Number     Number       Type             X           Y           Z
 ---------------------------------------------------------------------
      1          6           0        1.196130    0.702090   -0.000000
      2          6           0        1.237409   -0.714430    0.000000
      3          6           0       -0.009961   -1.386957    0.000000
      4          6           0       -1.196130   -0.702090   -0.000000
      5          6           0       -1.237409    0.714430    0.000000
      6          6           0        0.009961    1.386957    0.000000
      7          1           0        2.175265   -1.255758   -0.000000
      8          1           0       -2.175265    1.255758   -0.000000
      9          9           0       -0.017729   -2.739695   -0.000000
     10          9           0       -2.363807   -1.385105    0.000000
     11          9           0        0.017729    2.739695   -0.000000
     12          9           0        2.363807    1.385105    0.000000
 ---------------------------------------------------------------------
                    Distance matrix (angstroms):
                    1          2          3          4          5
     1  C    0.000000
     2  C    1.417121   0.000000
     3  C    2.412213   1.417118   0.000000
     4  C    2.773920   2.433570   1.369686   0.000000
     5  C    2.433570   2.857684   2.433609   1.417121   0.000000
     6  C    1.369686   2.433609   2.773985   2.412213   1.417118
     7  H    2.189035   1.082872   2.189161   3.416556   3.940556
     8  H    3.416556   3.940556   3.416502   2.189035   1.082872
     9  F    3.649567   2.382660   1.352761   2.353819   3.663140
    10  F    4.126686   3.663135   2.353847   1.352767   2.382608
    11  F    2.353819   3.663140   4.126745   3.649567   2.382660
    12  F    1.352767   2.382608   3.649534   4.126686   3.663135
                    6          7          8          9         10
     6  C    0.000000
     7  H    3.416502   0.000000
     8  H    2.189161   5.023427   0.000000
     9  F    4.126745   2.647885   4.540771   0.000000
    10  F    3.649534   4.540915   2.647585   2.709058   0.000000
    11  F    1.352761   4.540771   2.647885   5.479505   4.762950
    12  F    2.353847   2.647585   4.540915   4.762950   5.479453
                   11         12
    11  F    0.000000
    12  F    2.709058   0.000000
 Symmetry turned off by external request.
 Stoichiometry    C6H2F4(1-,2)
 Framework group  C2H[SGH(C6H2F4)]
 Deg. of freedom    11
 Full point group                 C2H     NOp   4
 Rotational constants (GHZ):           2.2596264           1.0091087           0.6975814
 Leave Link  202 at Thu Jan 30 13:07:23 2025, MaxMem=   104857600 cpu:               0.0 elap:               0.0
 (Enter /sw/cluster/pub/apps//g16/l301.exe)
 Standard basis: 6-311++G(d,p) (5D, 7F)
 Ernie: Thresh=  0.10000D-02 Tol=  0.10000D-05 Strict=F.
   234 basis functions,   378 primitive gaussians,   244 cartesian basis functions
    38 alpha electrons       37 beta electrons
       nuclear repulsion energy       514.1260478383 Hartrees.
 IExCor= 1009 DFT=T Ex+Corr=PBE1PBE ExCW=0 ScaHFX=  0.250000
 ScaDFX=  0.750000  0.750000  1.000000  1.000000 ScalE2=  1.000000  1.000000
 IRadAn=      5 IRanWt=     -1 IRanGd=            0 ICorTp=0 IEmpDi=  4
 NAtoms=   12 NActive=   12 NUniq=   12 SFac= 1.00D+00 NAtFMM=   60 NAOKFM=F Big=F
 Integral buffers will be    131072 words long.
 Raffenetti 2 integral format.
 Two-electron integral symmetry is turned off.
 Leave Link  301 at Thu Jan 30 13:07:23 2025, MaxMem=   104857600 cpu:               0.0 elap:               0.0
 (Enter /sw/cluster/pub/apps//g16/l302.exe)
 NPDir=0 NMtPBC=     1 NCelOv=     1 NCel=       1 NClECP=     1 NCelD=      1
         NCelK=      1 NCelE2=     1 NClLst=     1 CellRange=     0.0.
 One-electron integrals computed using PRISM.
 NBasis=   234 RedAO= T EigKep=  2.47D-06  NBF=   234
 NBsUse=   234 1.00D-06 EigRej= -1.00D+00 NBFU=   234
 Precomputing XC quadrature grid using
 IXCGrd= 4 IRadAn=           5 IRanWt=          -1 IRanGd=           0 AccXCQ= 0.00D+00.
 Generated NRdTot=       0 NPtTot=           0 NUsed=           0 NTot=          32
 NSgBfM=   244   244   244   244   244 MxSgAt=    12 MxSgA2=    12.
 Leave Link  302 at Thu Jan 30 13:07:23 2025, MaxMem=   104857600 cpu:               0.1 elap:               0.1
 (Enter /sw/cluster/pub/apps//g16/l303.exe)
 DipDrv:  MaxL=1.
 Leave Link  303 at Thu Jan 30 13:07:23 2025, MaxMem=   104857600 cpu:               0.0 elap:               0.0
 (Enter /sw/cluster/pub/apps//g16/l401.exe)
 Initial guess from the checkpoint file:  "1-2-4-5-TtFB-ANI.chk"
 B after Tr=    -0.000000    0.000000    0.000000
         Rot=    1.000000   -0.000000   -0.000000   -0.000006 Ang=  -0.00 deg.
 Guess basis will be translated and rotated to current coordinates.
 JPrj=2 DoOrth=T DoCkMO=T.
 Initial guess <Sx>= 0.0000 <Sy>= 0.0000 <Sz>= 0.5000 <S**2>= 0.7557 S= 0.5029
 Generating alternative initial guess.
 ExpMin= 3.60D-02 ExpMax= 1.14D+04 ExpMxC= 1.72D+03 IAcc=3 IRadAn=         5 AccDes= 0.00D+00
 Harris functional with IExCor= 1009 and IRadAn=       5 diagonalized for initial guess.
 HarFok:  IExCor= 1009 AccDes= 0.00D+00 IRadAn=         5 IDoV= 1 UseB2=F ITyADJ=14
 ICtDFT=  3500011 ScaDFX=  1.000000  1.000000  1.000000  1.000000
 FoFCou: FMM=F IPFlag=           0 FMFlag=      100000 FMFlg1=           0
         NFxFlg=           0 DoJE=T BraDBF=F KetDBF=T FulRan=T
         wScrn=  0.000000 ICntrl=       500 IOpCl=  0 I1Cent=   200000004 NGrid=           0
         NMat0=    1 NMatS0=      1 NMatT0=    0 NMatD0=    1 NMtDS0=    0 NMtDT0=    0
 Symmetry not used in FoFCou.
 Harris En= -628.884708936127    
 Leave Link  401 at Thu Jan 30 13:07:24 2025, MaxMem=   104857600 cpu:               1.3 elap:               1.3
 (Enter /sw/cluster/pub/apps//g16/l502.exe)
 Two-electron integral symmetry not used.
 UHF open shell SCF:
 Using DIIS extrapolation, IDIIS=  1040.
 NGot=   104857600 LenX=   104735324 LenY=   104675347
 Requested convergence on RMS density matrix=1.00D-08 within 128 cycles.
 Requested convergence on MAX density matrix=1.00D-06.
 Requested convergence on             energy=1.00D-06.
 No special actions if energy rises.
 Fock matrices will be formed incrementally for  20 cycles.

 Cycle   1  Pass 1  IDiag  1:
 FoFJK:  IHMeth= 1 ICntrl=       0 DoSepK=F KAlg= 0 I1Cent=           0 FoldK=F
 IRaf= 930000000 NMat=       1 IRICut=       1 DoRegI=T DoRafI=F ISym2E= 0 IDoP0=0 IntGTp=1.
 FoFCou: FMM=F IPFlag=           0 FMFlag=      100000 FMFlg1=           0
         NFxFlg=           0 DoJE=F BraDBF=F KetDBF=F FulRan=T
         wScrn=  0.000000 ICntrl=         0 IOpCl=  1 I1Cent=           0 NGrid=           0
         NMat0=    1 NMatS0=      1 NMatT0=    0 NMatD0=    1 NMtDS0=    0 NMtDT0=    0
 Symmetry not used in FoFCou.
 E= -628.700931930053    
 DIIS: error= 9.68D-03 at cycle   1 NSaved=   1.
[...]
   R11        2.03949  -0.00001   0.00000  -0.00002  -0.00002   2.03947
   R12        2.57784  -0.00004   0.00000  -0.00009  -0.00009   2.57776
    A1        2.13986   0.00001   0.00000   0.00004   0.00004   2.13990
    A2        2.05825  -0.00000   0.00000   0.00001   0.00001   2.05827
    A3        2.08507  -0.00001   0.00000  -0.00005  -0.00005   2.08502
    A4        2.00346  -0.00002   0.00000  -0.00008  -0.00008   2.00338
    A5        2.13987   0.00001   0.00000   0.00004   0.00004   2.13991
    A6        2.13986   0.00001   0.00000   0.00004   0.00004   2.13989
    A7        2.13987   0.00001   0.00000   0.00004   0.00004   2.13991
    A8        2.05825  -0.00000   0.00000   0.00001   0.00001   2.05826
    A9        2.08507  -0.00001   0.00000  -0.00005  -0.00005   2.08502
   A10        2.13986   0.00001   0.00000   0.00004   0.00004   2.13990
   A11        2.08507  -0.00001   0.00000  -0.00005  -0.00005   2.08502
   A12        2.05825  -0.00000   0.00000   0.00001   0.00001   2.05827
   A13        2.00346  -0.00002   0.00000  -0.00008  -0.00008   2.00338
   A14        2.13987   0.00001   0.00000   0.00004   0.00004   2.13991
   A15        2.13986   0.00001   0.00000   0.00004   0.00004   2.13989
   A16        2.13987   0.00001   0.00000   0.00004   0.00004   2.13991
   A17        2.08507  -0.00001   0.00000  -0.00005  -0.00005   2.08502
   A18        2.05825  -0.00000   0.00000   0.00001   0.00001   2.05826
    D1       -0.00000   0.00000   0.00000   0.00000   0.00000   0.00000
    D2        3.14159  -0.00000   0.00000  -0.00000  -0.00000   3.14159
    D3        3.14159  -0.00000   0.00000  -0.00000  -0.00000   3.14159
    D4        0.00000  -0.00000   0.00000  -0.00000  -0.00000  -0.00000
    D5        0.00000  -0.00000   0.00000  -0.00000   0.00000   0.00000
    D6        3.14159  -0.00000   0.00000  -0.00000  -0.00000   3.14159
    D7        3.14159   0.00000   0.00000   0.00000   0.00000  -3.14159
    D8       -0.00000   0.00000   0.00000   0.00000   0.00000   0.00000
    D9       -0.00000   0.00000   0.00000   0.00000   0.00000   0.00000
   D10       -3.14159  -0.00000   0.00000  -0.00000  -0.00000  -3.14159
   D11        3.14159   0.00000   0.00000   0.00000   0.00000  -3.14159
   D12        0.00000  -0.00000   0.00000  -0.00000  -0.00000   0.00000
   D13        0.00000  -0.00000   0.00000  -0.00000  -0.00000  -0.00000
   D14        3.14159   0.00000   0.00000  -0.00000   0.00000   3.14159
   D15        3.14159   0.00000   0.00000   0.00000   0.00000   3.14159
   D16       -0.00000   0.00000   0.00000   0.00000   0.00000   0.00000
   D17       -0.00000   0.00000   0.00000   0.00000   0.00000   0.00000
   D18        3.14159  -0.00000   0.00000  -0.00000  -0.00000   3.14159
   D19        3.14159  -0.00000   0.00000   0.00000   0.00000   3.14159
   D20       -0.00000  -0.00000   0.00000  -0.00000  -0.00000  -0.00000
   D21        0.00000   0.00000   0.00000  -0.00000  -0.00000   0.00000
   D22        3.14159   0.00000   0.00000   0.00000   0.00000  -3.14159
   D23       -3.14159   0.00000   0.00000   0.00000   0.00000  -3.14159
   D24        0.00000   0.00000   0.00000   0.00000   0.00000   0.00000
         Item               Value     Threshold  Converged?
 Maximum Force            0.000037     0.000450     YES
 RMS     Force            0.000014     0.000300     YES
 Maximum Displacement     0.000154     0.001800     YES
 RMS     Displacement     0.000057     0.001200     YES
 Predicted change in Energy=-1.400816D-08
 Optimization completed.
    -- Stationary point found.
                           ----------------------------
                           !   Optimized Parameters   !
                           ! (Angstroms and Degrees)  !
 --------------------------                            --------------------------
 ! Name  Definition              Value          Derivative Info.                !
 --------------------------------------------------------------------------------
 ! R1    R(1,2)                  1.4206         -DE/DX =    0.0                 !
 ! R2    R(1,6)                  1.3619         -DE/DX =    0.0                 !
 ! R3    R(1,12)                 1.3641         -DE/DX =    0.0                 !
 ! R4    R(2,3)                  1.4206         -DE/DX =    0.0                 !
 ! R5    R(2,7)                  1.0793         -DE/DX =    0.0                 !
 ! R6    R(3,4)                  1.3619         -DE/DX =    0.0                 !
 ! R7    R(3,9)                  1.3641         -DE/DX =    0.0                 !
 ! R8    R(4,5)                  1.4206         -DE/DX =    0.0                 !
 ! R9    R(4,10)                 1.3641         -DE/DX =    0.0                 !
 ! R10   R(5,6)                  1.4206         -DE/DX =    0.0                 !
 ! R11   R(5,8)                  1.0793         -DE/DX =    0.0                 !
 ! R12   R(6,11)                 1.3641         -DE/DX =    0.0                 !
 ! A1    A(2,1,6)              122.605          -DE/DX =    0.0                 !
 ! A2    A(2,1,12)             117.9293         -DE/DX =    0.0                 !
 ! A3    A(6,1,12)             119.4657         -DE/DX =    0.0                 !
 ! A4    A(1,2,3)              114.7897         -DE/DX =    0.0                 !
 ! A5    A(1,2,7)              122.6054         -DE/DX =    0.0                 !
 ! A6    A(3,2,7)              122.6048         -DE/DX =    0.0                 !
 ! A7    A(2,3,4)              122.6053         -DE/DX =    0.0                 !
 ! A8    A(2,3,9)              117.9291         -DE/DX =    0.0                 !
 ! A9    A(4,3,9)              119.4656         -DE/DX =    0.0                 !
 ! A10   A(3,4,5)              122.605          -DE/DX =    0.0                 !
 ! A11   A(3,4,10)             119.4657         -DE/DX =    0.0                 !
 ! A12   A(5,4,10)             117.9293         -DE/DX =    0.0                 !
 ! A13   A(4,5,6)              114.7897         -DE/DX =    0.0                 !
 ! A14   A(4,5,8)              122.6054         -DE/DX =    0.0                 !
 ! A15   A(6,5,8)              122.6048         -DE/DX =    0.0                 !
 ! A16   A(1,6,5)              122.6053         -DE/DX =    0.0                 !
 ! A17   A(1,6,11)             119.4656         -DE/DX =    0.0                 !
 ! A18   A(5,6,11)             117.9291         -DE/DX =    0.0                 !
 ! D1    D(6,1,2,3)              0.0            -DE/DX =    0.0                 !
 ! D2    D(6,1,2,7)            180.0            -DE/DX =    0.0                 !
 ! D3    D(12,1,2,3)           180.0            -DE/DX =    0.0                 !
 ! D4    D(12,1,2,7)             0.0            -DE/DX =    0.0                 !
 ! D5    D(2,1,6,5)              0.0            -DE/DX =    0.0                 !
 ! D6    D(2,1,6,11)           180.0            -DE/DX =    0.0                 !
 ! D7    D(12,1,6,5)          -180.0            -DE/DX =    0.0                 !
 ! D8    D(12,1,6,11)            0.0            -DE/DX =    0.0                 !
 ! D9    D(1,2,3,4)              0.0            -DE/DX =    0.0                 !
 ! D10   D(1,2,3,9)           -180.0            -DE/DX =    0.0                 !
 ! D11   D(7,2,3,4)           -180.0            -DE/DX =    0.0                 !
 ! D12   D(7,2,3,9)              0.0            -DE/DX =    0.0                 !
 ! D13   D(2,3,4,5)              0.0            -DE/DX =    0.0                 !
 ! D14   D(2,3,4,10)           180.0            -DE/DX =    0.0                 !
 ! D15   D(9,3,4,5)            180.0            -DE/DX =    0.0                 !
 ! D16   D(9,3,4,10)             0.0            -DE/DX =    0.0                 !
 ! D17   D(3,4,5,6)              0.0            -DE/DX =    0.0                 !
 ! D18   D(3,4,5,8)            180.0            -DE/DX =    0.0                 !
 ! D19   D(10,4,5,6)           180.0            -DE/DX =    0.0                 !
 ! D20   D(10,4,5,8)             0.0            -DE/DX =    0.0                 !
 ! D21   D(4,5,6,1)              0.0            -DE/DX =    0.0                 !
 ! D22   D(4,5,6,11)          -180.0            -DE/DX =    0.0                 !
 ! D23   D(8,5,6,1)           -180.0            -DE/DX =    0.0                 !
 ! D24   D(8,5,6,11)             0.0            -DE/DX =    0.0                 !
 --------------------------------------------------------------------------------
 GradGradGradGradGradGradGradGradGradGradGradGradGradGradGradGradGradGrad

 Leave Link  103 at Thu Jan 30 13:19:03 2025, MaxMem=   104857600 cpu:               0.0 elap:               0.0
 (Enter /sw/cluster/pub/apps//g16/l9999.exe)

 ----------------------------------------------------------------------

 Electric dipole moment (input orientation):
 (Debye = 10**-18 statcoulomb cm , SI units = C m)
                  (au)            (Debye)         (10**-30 SI)
   Tot        0.000000D+00      0.000000D+00      0.000000D+00
   x          0.000000D+00      0.000000D+00      0.000000D+00
   y          0.000000D+00      0.000000D+00      0.000000D+00
   z          0.000000D+00      0.000000D+00      0.000000D+00

 Dipole polarizability, Alpha (input orientation).
 (esu units = cm**3 , SI units = C**2 m**2 J**-1)
 Alpha(0;0):
               (au)            (10**-24 esu)      (10**-40 SI)
   iso        0.103119D+03      0.152806D+02      0.170020D+02
   aniso      0.380500D+02      0.563843D+01      0.627360D+01
   xx         0.114892D+03      0.170252D+02      0.189431D+02
   yx        -0.189857D+02     -0.281339D+01     -0.313032D+01
   yy         0.929674D+02      0.137763D+02      0.153282D+02
   zx         0.000000D+00      0.000000D+00      0.000000D+00
   zy         0.000000D+00      0.000000D+00      0.000000D+00
   zz         0.101497D+03      0.150403D+02      0.167346D+02

 ----------------------------------------------------------------------

 Dipole orientation:
     6          2.24346071         -1.31613111         -0.07226803
     6          2.36355483          1.36461394         -0.15204804
     6         -0.01805385          2.60098742         -0.07089300
     6         -2.24346071          1.31613111          0.07226803
     6         -2.36355483         -1.36461394          0.15204806
     6          0.01805385         -2.60098742          0.07089302
     1          4.12705465          2.38280290         -0.26549499
     1         -4.12705464         -2.38280290          0.26549504
     9         -0.04377838          5.17775544         -0.14074657
     9         -4.46209747          2.62680290          0.14348520
     9          0.04377838         -5.17775544          0.14074650
     9          4.46209746         -2.62680290         -0.14348522

 Electric dipole moment (dipole orientation):
 (Debye = 10**-18 statcoulomb cm , SI units = C m)
                  (au)            (Debye)         (10**-30 SI)
   Tot        0.000000D+00      0.000000D+00      0.000000D+00
   x          0.000000D+00      0.000000D+00      0.000000D+00
   y          0.000000D+00      0.000000D+00      0.000000D+00
   z          0.000000D+00      0.000000D+00      0.000000D+00

 Dipole polarizability, Alpha (dipole orientation).
 (esu units = cm**3 , SI units = C**2 m**2 J**-1)
 Alpha(0;0):
               (au)            (10**-24 esu)      (10**-40 SI)
   iso        0.103119D+03      0.152806D+02      0.170020D+02
   aniso      0.380500D+02      0.563843D+01      0.627360D+01
   xx         0.114835D+03      0.170168D+02      0.189338D+02
   yx         0.189531D+02      0.280856D+01      0.312494D+01
   yy         0.929486D+02      0.137736D+02      0.153251D+02
   zx        -0.116853D+01     -0.173158D+00     -0.192664D+00
   zy        -0.681457D+00     -0.100982D+00     -0.112357D+00
   zz         0.101572D+03      0.150515D+02      0.167470D+02

 ----------------------------------------------------------------------
 1\1\GINC-N11\Freq\UPBE1PBE\6-311++G(d,p)\C6H2F4(1-,2)\UNKNOWN\30-Jan-2
 025\0\\#P Geom=AllCheck Guess=TCheck SCRF=Check GenChk UPBE1PBE/6-311+
 +G(d,p) Freq\\1 2 4 5 TtFB SP\\-1,2\C,1.1881130314,0.6959393993,0.0000
 000047\C,1.2526849762,-0.7232317736,-0.00000001\C,-0.0086465321,-1.376
 9004257,-0.0000000128\C,-1.1881130314,-0.6959393994,-0.0000000017\C,-1
 .2526849762,0.7232317736,-0.000000001\C,0.0086465322,1.3769004257,0.00
 0000003\H,2.1873405664,-1.2628617548,-0.0000000112\H,-2.1873405665,1.2
 628617548,-0.0000000165\F,-0.021365514,-2.7409769154,0.0000000211\F,-2
 .3630763419,-1.3889975221,0.0000000072\F,0.021365514,2.7409769154,0.00
 00000123\F,2.3630763419,1.3889975221,0.0000000039\\Version=ES64L-G16Re
 vA.03\HF=-628.7066014\S2=0.757381\S2-1=0.\S2A=0.750024\RMSD=2.610e-09\
 RMSF=2.245e-05\ZeroPoint=0.0609969\Thermal=0.069242\Dipole=0.,0.,0.\Di
 poleDeriv=0.9666762,0.3725089,0.,0.2457441,0.7861344,0.,0.,0.,0.200566
 5,-0.677695,0.0787171,0.,0.0784134,-0.5867539,0.,0.,0.,-0.7991106,0.56
 37355,0.0128814,0.,0.1400023,1.1892216,0.,0.,-0.0000001,0.2005976,0.96
 66761,0.3725089,0.,0.2457442,0.7861344,0.,0.,0.,0.2005665,-0.677695,0.
 0787171,0.,0.0784133,-0.5867538,0.0000001,0.,0.,-0.7991105,0.5637354,0
 .0128815,0.,0.1400023,1.1892216,0.,0.,0.,0.2005976,-0.0532188,0.062779
 2,0.,0.062834,0.0193114,0.,0.,0.,0.3029388,-0.0532188,0.0627792,0.,0.0
 62834,0.0193114,0.,0.,0.,0.3029388,-0.233553,-0.0188311,0.,-0.0275701,
 -1.3701513,0.,0.,0.,-0.2024834,-1.0659447,-0.5080555,0.,-0.4994237,-0.
 5377622,0.,0.,0.,-0.202509,-0.233553,-0.0188311,0.,-0.0275701,-1.37015
 13,0.,0.,0.,-0.2024834,-1.0659447,-0.5080555,0.,-0.4994236,-0.5377622,
 0.,0.,0.,-0.202509\Polar=114.891883,-18.9857091,92.967363,0.0000013,-0
 .0000027,101.4970284\Quadrupole=-0.6853333,-5.436281,6.1216143,-4.1145
 078,0.,0.\PG=C01 [X(C6H2F4)]\NImag=2\\0.72447593,-0.07049367,0.6389932
 1,0.,0.,0.08341285,-0.11352984,0.07187114,0.,0.68717142,-0.00320599,-0
 .26729199,0.,-0.08560284,0.58837489,0.,0.,-0.01100318,0.,0.,-0.0083028
 4,0.03072633,-0.07857997,0.,-0.25856329,-0.01186741,0.,0.72137661,-0.0
 2661916,-0.03000174,0.,-0.08694187,-0.12223729,0.,-0.07226343,0.642038
 82,0.,0.,-0.01635017,0.,0.,-0.01101395,0.,0.,0.08343340,-0.01885908,0.
 01770030,0.,-0.03247667,-0.01138213,0.,-0.35063924,0.18123139,0.,0.724
 47593,0.01770030,-0.00894673,0.,-0.02809883,0.00794363,0.,0.14391431,-
 0.16290185,0.,-0.07049367,0.63899322,0.,0.,0.01040450,0.,0.,0.00884918
 ,0.,0.,-0.05622896,0.,0.,0.08341285,-0.03247667,-0.02809883,0.,-0.0028
 1103,0.02479872,0.,0.01493633,0.01599020,0.,-0.11352985,0.07187114,0.,
 0.68717143,-0.01138213,0.00794363,0.,0.02479872,0.02581536,0.,-0.00072
 650,-0.03946947,0.,-0.00320599,-0.26729199,0.,-0.08560284,0.58837489,0
 .,0.,0.00884918,0.,0.,-0.00346472,0.,0.,0.00884718,0.,0.,-0.01100318,0
 .,0.,-0.00830284,-0.35063924,0.14391431,0.,0.01493634,-0.00072650,0.,-
 0.02673918,0.01314804,0.,0.03072633,-0.07857998,0.,-0.25856329,-0.0118
 6741,0.,0.72137662,0.18123139,-0.16290185,0.,0.01599020,-0.03946947,0.
 ,0.01314804,-0.00106379,0.,-0.02661916,-0.03000175,0.,-0.08694186,-0.1
 2223729,0.,-0.07226343,0.64203882,0.,0.,-0.05622896,0.,0.,0.00884718,0
 .,0.,0.01040286,0.,0.,-0.01635017,0.,0.,-0.01101395,0.,0.,0.08343340,0
 .00190445,-0.00397732,0.,-0.28226484,0.13220715,0.,-0.01517134,0.01800
 868,0.,-0.00082432,-0.00440222,0.,0.00101100,0.00061200,0.,-0.00069864
 ,-0.00077139,0.,0.29372807,0.02786530,-0.00707126,0.,0.13220756,-0.129
 61128,0.,-0.01383224,0.01000408,0.,-0.00084267,-0.00368534,0.,0.000612
 67,0.00171757,0.,-0.00433173,-0.00380910,0.,-0.14280862,0.12883226,0.,
 0.,-0.00834895,0.,0.,0.01883855,0.,0.,-0.00834951,0.,0.,-0.00504146,0.
 ,0.,0.00317078,0.,0.,-0.00504217,0.,0.,-0.00691952,-0.00082432,-0.0044
 0222,0.,0.00101100,0.00061200,0.,-0.00069864,-0.00077139,0.,0.00190445
 ,-0.00397732,0.,-0.28226484,0.13220715,0.,-0.01517134,0.01800868,0.,-0
 .00000657,0.00010148,0.,0.29372807,-0.00084267,-0.00368534,0.,0.000612
 67,0.00171757,0.,-0.00433173,-0.00380910,0.,0.02786530,-0.00707126,0.,
 0.13220756,-0.12961128,0.,-0.01383224,0.01000408,0.,0.00010148,0.00011
 057,0.,-0.14280862,0.12883226,0.,0.,-0.00504147,0.,0.,0.00317078,0.,0.
 ,-0.00504217,0.,0.,-0.00834895,0.,0.,0.01883855,0.,0.,-0.00834951,0.,0
 .,-0.00442114,0.,0.,-0.00691952,-0.00656038,0.00513642,0.,0.00712219,-
 0.04259740,0.,-0.07290809,-0.00018635,0.,0.00433942,0.03356063,0.,-0.0
 0441195,0.00216585,0.,-0.00089627,-0.00158088,0.,0.00244436,0.00176250
 ,0.,0.00032208,0.00161990,0.,0.06432690,-0.00205770,-0.00131107,0.,0.0
 0816143,-0.02858639,0.,-0.00210964,-0.29529334,0.,-0.01532302,-0.04088
 410,0.,-0.00165755,-0.01348175,0.,0.01059691,0.00571676,0.,-0.00011985
 ,0.00253343,0.,-0.00038196,-0.00238105,0.,0.00130944,0.37000552,0.,0.,
 0.00584860,0.,0.,-0.00250162,0.,0.,-0.02343692,0.,0.,0.01226650,0.,0.,
 -0.00045945,0.,0.,-0.00037570,0.,0.,0.00183711,0.,0.,0.00622077,0.,0.,
 0.01503181,0.00016285,0.01120229,0.,-0.01143715,-0.00570961,0.,-0.0374
 6791,-0.03946113,0.,-0.23871945,-0.09783307,0.,-0.00474618,0.00130816,
 0.,-0.00395533,-0.00055410,0.,-0.00224100,-0.00186137,0.,0.00179674,-0
 .00049279,0.,0.00565891,0.00719554,0.,0.29245675,-0.00097057,0.0046591
 9,0.,-0.00188915,-0.00645777,0.,0.00941142,0.00093192,0.,-0.09590208,-
 0.12950196,0.,-0.04945148,-0.01671553,0.,0.00664025,-0.00391502,0.,0.0
 0014013,0.00018253,0.,0.00139192,0.00317759,0.,0.00251576,0.01125794,0
 .,0.13301506,0.14188861,0.,0.,-0.00037686,0.,0.,-0.00045579,0.,0.,0.01
 226328,0.,0.,-0.02343205,0.,0.,-0.00250415,0.,0.,0.00585067,0.,0.,0.00
 621998,0.,0.,0.00183557,0.,0.,-0.01055357,0.,0.,0.01503080,0.00433942,
 0.03356063,0.,-0.00441195,0.00216585,0.,-0.00089627,-0.00158088,0.,-0.
 00656038,0.00513642,0.,0.00712219,-0.04259740,0.,-0.07290809,-0.000186
 35,0.,0.00032208,0.00161990,0.,0.00244436,0.00176250,0.,0.00058760,-0.
 00093929,0.,-0.00002479,-0.00276657,0.,0.06432690,-0.01532302,-0.04088
 410,0.,-0.00165755,-0.01348175,0.,0.01059691,0.00571676,0.,-0.00205770
 ,-0.00131107,0.,0.00816143,-0.02858639,0.,-0.00210964,-0.29529334,0.,-
 0.00038196,-0.00238105,0.,-0.00011985,0.00253343,0.,-0.00093929,-0.003
 25547,0.,-0.00467432,-0.00432050,0.,0.00130944,0.37000552,0.,0.,0.0122
 6650,0.,0.,-0.00045945,0.,0.,-0.00037570,0.,0.,0.00584860,0.,0.,-0.002
 50161,0.,0.,-0.02343691,0.,0.,0.00622077,0.,0.,0.00183711,0.,0.,-0.001
 76165,0.,0.,-0.00211590,0.,0.,0.01503181,-0.23871945,-0.09783307,0.,-0
 .00474618,0.00130816,0.,-0.00395533,-0.00055410,0.,0.00016285,0.011202
 29,0.,-0.01143715,-0.00570961,0.,-0.03746791,-0.03946113,0.,0.00179674
 ,-0.00049279,0.,-0.00224100,-0.00186137,0.,-0.00002479,-0.00467432,0.,
 -0.00148345,-0.00213467,0.,0.00565891,0.00719554,0.,0.29245675,-0.0959
 0208,-0.12950196,0.,-0.04945148,-0.01671553,0.,0.00664025,-0.00391502,
 0.,-0.00097057,0.00465919,0.,-0.00188915,-0.00645777,0.,0.00941142,0.0
 0093193,0.,0.00139192,0.00317759,0.,0.00014013,0.00018253,0.,-0.002766
 57,-0.00432050,0.,-0.00213467,-0.00118700,0.,0.00251576,0.01125794,0.,
 0.13301506,0.14188861,0.,0.,-0.02343204,0.,0.,-0.00250415,0.,0.,0.0058
 5067,0.,0.,-0.00037686,0.,0.,-0.00045579,0.,0.,0.01226327,0.,0.,0.0018
 3557,0.,0.,0.00621998,0.,0.,-0.00211590,0.,0.,-0.00176197,0.,0.,-0.010
 55357,0.,0.,0.01503080\\-0.00005237,0.00002063,0.,-0.00000670,0.000003
 14,0.,-0.00004452,0.00003467,0.,0.00005237,-0.00002063,0.,0.00000670,-
 0.00000314,0.,0.00004452,-0.00003467,0.,0.00000535,-0.00000358,0.,-0.0
 0000535,0.00000358,0.,0.00000046,-0.00003596,0.,-0.00003238,-0.0000166
 8,0.,-0.00000046,0.00003596,0.,0.00003238,0.00001668,0.\\\@


 I WANT TO KNOW HOW GOD CREATED THE WORLD.  I AM NOT INTERESTED IN
 THIS OR THAT PHENOMENON, IN THE SPECTRUM OF THIS OR THAT ELEMENT.
 I WANT TO KNOW HIS THOUGHTS, THE REST ARE DETAILS.
     -- ALBERT EINSTEIN
 Job cpu time:       0 days  0 hours  7 minutes 23.7 seconds.
 Elapsed time:       0 days  0 hours  7 minutes 24.2 seconds.
 File lengths (MBytes):  RWF=    156 Int=      0 D2E=      0 Chk=      8 Scr=      1
 Normal termination of Gaussian 16 at Thu Jan 30 13:19:03 2025.
