 Entering Gaussian System, Link 0=g16
 Initial command:
 /sw/cluster/pub/apps//g16/l1.exe "/data/natrosa/28475/Gau-90606.inp" -scrdir="/data/natrosa/28475/"
 Entering Link 1 = /sw/cluster/pub/apps//g16/l1.exe PID=     90607.
  
 Copyright (c) 1988,1990,1992,1993,1995,1998,2003,2009,2016,
            Gaussian, Inc.  All Rights Reserved.
  
 This is part of the Gaussian(R) 16 program.  It is based on
 the Gaussian(R) 09 system (copyright 2009, Gaussian, Inc.),
 the Gaussian(R) 03 system (copyright 2003, Gaussian, Inc.),
 the Gaussian(R) 98 system (copyright 1998, Gaussian, Inc.),
 the Gaussian(R) 94 system (copyright 1995, Gaussian, Inc.),
 the Gaussian 92(TM) system (copyright 1992, Gaussian, Inc.),
 the Gaussian 90(TM) system (copyright 1990, Gaussian, Inc.),
 the Gaussian 88(TM) system (copyright 1988, Gaussian, Inc.),
 the Gaussian 86(TM) system (copyright 1986, Carnegie Mellon
 University), and the Gaussian 82(TM) system (copyright 1983,
 Carnegie Mellon University). Gaussian is a federally registered
 trademark of Gaussian, Inc.
  
 This software contains proprietary and confidential information,
 including trade secrets, belonging to Gaussian, Inc.
  
 This software is provided under written license and may be
 used, copied, transmitted, or stored only in accord with that
 written license.
  
 The following legend is applicable only to US Government
 contracts under FAR:
  
                    RESTRICTED RIGHTS LEGEND
  
 Use, reproduction and disclosure by the US Government is
 subject to restrictions as set forth in subparagraphs (a)
 and (c) of the Commercial Computer Software - Restricted
 Rights clause in FAR 52.227-19.
  
 Gaussian, Inc.
 340 Quinnipiac St., Bldg. 40, Wallingford CT 06492
  
  
 ---------------------------------------------------------------
 Warning -- This program may not be used in any manner that
 competes with the business of Gaussian, Inc. or will provide
 assistance to any competitor of Gaussian, Inc.  The licensee
 of this program is prohibited from giving any competitor of
 Gaussian, Inc. access to this program.  By using this program,
 the user acknowledges that Gaussian, Inc. is engaged in the
 business of creating and licensing software in the field of
 computational chemistry and represents and warrants to the
 licensee that it is not a competitor of Gaussian, Inc. and that
 it will not use this program in any manner prohibited above.
 ---------------------------------------------------------------
  

 Cite this work as:
 Gaussian 16, Revision A.03,
 M. J. Frisch, G. W. Trucks, H. B. Schlegel, G. E. Scuseria, 
 M. A. Robb, J. R. Cheeseman, G. Scalmani, V. Barone, 
 G. A. Petersson, H. Nakatsuji, X. Li, M. Caricato, A. V. Marenich, 
 J. Bloino, B. G. Janesko, R. Gomperts, B. Mennucci, H. P. Hratchian, 
 J. V. Ortiz, A. F. Izmaylov, J. L. Sonnenberg, D. Williams-Young, 
 F. Ding, F. Lipparini, F. Egidi, J. Goings, B. Peng, A. Petrone, 
 T. Henderson, D. Ranasinghe, V. G. Zakrzewski, J. Gao, N. Rega, 
 G. Zheng, W. Liang, M. Hada, M. Ehara, K. Toyota, R. Fukuda, 
 J. Hasegawa, M. Ishida, T. Nakajima, Y. Honda, O. Kitao, H. Nakai, 
 T. Vreven, K. Throssell, J. A. Montgomery, Jr., J. E. Peralta, 
 F. Ogliaro, M. J. Bearpark, J. J. Heyd, E. N. Brothers, K. N. Kudin, 
 V. N. Staroverov, T. A. Keith, R. Kobayashi, J. Normand, 
 K. Raghavachari, A. P. Rendell, J. C. Burant, S. S. Iyengar, 
 J. Tomasi, M. Cossi, J. M. Millam, M. Klene, C. Adamo, R. Cammi, 
 J. W. Ochterski, R. L. Martin, K. Morokuma, O. Farkas, 
 J. B. Foresman, and D. J. Fox, Gaussian, Inc., Wallingford CT, 2016.
 
 ******************************************
 Gaussian 16:  ES64L-G16RevA.03 25-Dec-2016
                30-Jan-2025 
 ******************************************
 %chk=1-2-4-5-TtFB-CAT.chk
 --------------------------------------------------------
 #p opt freq PBE1PBE/6-311++G(d,p) density=current nosymm
 --------------------------------------------------------
 1/18=20,19=15,26=3,38=1/1,3;
 2/9=110,12=2,15=1,17=6,18=5,40=1/2;
 3/5=4,6=6,7=1111,11=2,25=1,30=1,71=1,74=-13/1,2,3;
 4//1;
 5/5=2,38=5/2;
 6/7=2,8=2,9=2,10=2,22=-1,28=1/1;
 7/30=1/1,2,3,16;
 1/18=20,19=15,26=3/3(2);
 2/9=110,15=1/2;
 99//99;
 2/9=110,15=1/2;
 3/5=4,6=6,7=1111,11=2,25=1,30=1,71=1,74=-13/1,2,3;
 4/5=5,16=3,69=1/1;
 5/5=2,38=5/2;
 7/30=1/1,2,3,16;
 1/18=20,19=15,26=3/3(-5);
 2/9=110,15=1/2;
 6/7=2,8=2,9=2,10=2,19=2,22=-1,28=1/1;
 99/9=1/99;
 Leave Link    1 at Thu Jan 30 13:03:21 2025, MaxMem=           0 cpu:               0.0 elap:               0.0
 (Enter /sw/cluster/pub/apps//g16/l101.exe)
 ---------------
 1 2 4 5 TtFB SP
 ---------------
 Symbolic Z-matrix:
 Charge =  1 Multiplicity = 2
 C                     1.1963    0.68499   0. 
 C                     1.20863  -0.69785   0. 
 C                     0.00498  -1.37869  0. 
 C                    -1.1963   -0.68499   0. 
 C                    -1.20863   0.69785   0. 
 C                    -0.00498   1.37869  0. 
 H                     2.14668  -1.23914   0. 
 H                    -2.14668   1.23914   0. 
 F                    -0.00683  -2.71086   0. 
 F                    -2.3442   -1.36107   0. 
 F                     0.00683   2.71086   0. 
 F                     2.3442    1.36107   0. 
 
 ITRead=  0  0  0  0  0  0  0  0  0  0  0  0
 MicOpt= -1 -1 -1 -1 -1 -1 -1 -1 -1 -1 -1 -1
 NAtoms=     12 NQM=       12 NQMF=       0 NMMI=      0 NMMIF=      0
                NMic=       0 NMicF=      0.
                    Isotopes and Nuclear Properties:
 (Nuclear quadrupole moments (NQMom) in fm**2, nuclear magnetic moments (NMagM)
  in nuclear magnetons)

  Atom         1           2           3           4           5           6           7           8           9          10
 IAtWgt=          12          12          12          12          12          12           1           1          19          19
 AtmWgt=  12.0000000  12.0000000  12.0000000  12.0000000  12.0000000  12.0000000   1.0078250   1.0078250  18.9984032  18.9984032
 NucSpn=           0           0           0           0           0           0           1           1           1           1
 AtZEff=  -0.0000000  -0.0000000  -0.0000000  -0.0000000  -0.0000000  -0.0000000  -0.0000000  -0.0000000  -0.0000000  -0.0000000
 NQMom=    0.0000000   0.0000000   0.0000000   0.0000000   0.0000000   0.0000000   0.0000000   0.0000000   0.0000000   0.0000000
 NMagM=    0.0000000   0.0000000   0.0000000   0.0000000   0.0000000   0.0000000   2.7928460   2.7928460   2.6288670   2.6288670
 AtZNuc=   6.0000000   6.0000000   6.0000000   6.0000000   6.0000000   6.0000000   1.0000000   1.0000000   9.0000000   9.0000000

  Atom        11          12
 IAtWgt=          19          19
 AtmWgt=  18.9984032  18.9984032
 NucSpn=           1           1
 AtZEff=  -0.0000000  -0.0000000
 NQMom=    0.0000000   0.0000000
 NMagM=    2.6288670   2.6288670
 AtZNuc=   9.0000000   9.0000000
 Leave Link  101 at Thu Jan 30 13:03:22 2025, MaxMem=   104857600 cpu:               0.0 elap:               0.0
 (Enter /sw/cluster/pub/apps//g16/l103.exe)

 GradGradGradGradGradGradGradGradGradGradGradGradGradGradGradGradGradGrad
 Berny optimization.
 Initialization pass.
                           ----------------------------
                           !    Initial Parameters    !
                           ! (Angstroms and Degrees)  !
 --------------------------                            --------------------------
 ! Name  Definition              Value          Derivative Info.                !
 --------------------------------------------------------------------------------
 ! R1    R(1,2)                  1.3829         estimate D2E/DX2                !
 ! R2    R(1,6)                  1.3872         estimate D2E/DX2                !
 ! R3    R(1,12)                 1.3322         estimate D2E/DX2                !
 ! R4    R(2,3)                  1.3829         estimate D2E/DX2                !
 ! R5    R(2,7)                  1.083          estimate D2E/DX2                !
 ! R6    R(3,4)                  1.3872         estimate D2E/DX2                !
 ! R7    R(3,9)                  1.3322         estimate D2E/DX2                !
 ! R8    R(4,5)                  1.3829         estimate D2E/DX2                !
 ! R9    R(4,10)                 1.3322         estimate D2E/DX2                !
 ! R10   R(5,6)                  1.3829         estimate D2E/DX2                !
 ! R11   R(5,8)                  1.083          estimate D2E/DX2                !
 ! R12   R(6,11)                 1.3322         estimate D2E/DX2                !
 ! A1    A(2,1,6)              120.5157         estimate D2E/DX2                !
 ! A2    A(2,1,12)             119.986          estimate D2E/DX2                !
 ! A3    A(6,1,12)             119.4983         estimate D2E/DX2                !
 ! A4    A(1,2,3)              118.9834         estimate D2E/DX2                !
 ! A5    A(1,2,7)              120.4973         estimate D2E/DX2                !
 ! A6    A(3,2,7)              120.5193         estimate D2E/DX2                !
 ! A7    A(2,3,4)              120.5009         estimate D2E/DX2                !
 ! A8    A(2,3,9)              120.0022         estimate D2E/DX2                !
 ! A9    A(4,3,9)              119.497          estimate D2E/DX2                !
 ! A10   A(3,4,5)              120.5157         estimate D2E/DX2                !
 ! A11   A(3,4,10)             119.4983         estimate D2E/DX2                !
 ! A12   A(5,4,10)             119.986          estimate D2E/DX2                !
 ! A13   A(4,5,6)              118.9834         estimate D2E/DX2                !
 ! A14   A(4,5,8)              120.4973         estimate D2E/DX2                !
 ! A15   A(6,5,8)              120.5193         estimate D2E/DX2                !
 ! A16   A(1,6,5)              120.5009         estimate D2E/DX2                !
 ! A17   A(1,6,11)             119.497          estimate D2E/DX2                !
 ! A18   A(5,6,11)             120.0022         estimate D2E/DX2                !
 ! D1    D(6,1,2,3)              0.0            estimate D2E/DX2                !
 ! D2    D(6,1,2,7)            180.0            estimate D2E/DX2                !
 ! D3    D(12,1,2,3)           180.0            estimate D2E/DX2                !
 ! D4    D(12,1,2,7)             0.0            estimate D2E/DX2                !
 ! D5    D(2,1,6,5)              0.0            estimate D2E/DX2                !
 ! D6    D(2,1,6,11)           180.0            estimate D2E/DX2                !
 ! D7    D(12,1,6,5)           180.0            estimate D2E/DX2                !
 ! D8    D(12,1,6,11)            0.0            estimate D2E/DX2                !
 ! D9    D(1,2,3,4)              0.0            estimate D2E/DX2                !
 ! D10   D(1,2,3,9)            180.0            estimate D2E/DX2                !
 ! D11   D(7,2,3,4)            180.0            estimate D2E/DX2                !
 ! D12   D(7,2,3,9)              0.0            estimate D2E/DX2                !
 ! D13   D(2,3,4,5)              0.0            estimate D2E/DX2                !
 ! D14   D(2,3,4,10)           180.0            estimate D2E/DX2                !
 ! D15   D(9,3,4,5)            180.0            estimate D2E/DX2                !
 ! D16   D(9,3,4,10)             0.0            estimate D2E/DX2                !
 ! D17   D(3,4,5,6)              0.0            estimate D2E/DX2                !
 ! D18   D(3,4,5,8)            180.0            estimate D2E/DX2                !
 ! D19   D(10,4,5,6)           180.0            estimate D2E/DX2                !
 ! D20   D(10,4,5,8)             0.0            estimate D2E/DX2                !
 ! D21   D(4,5,6,1)              0.0            estimate D2E/DX2                !
 ! D22   D(4,5,6,11)           180.0            estimate D2E/DX2                !
 ! D23   D(8,5,6,1)            180.0            estimate D2E/DX2                !
 ! D24   D(8,5,6,11)             0.0            estimate D2E/DX2                !
 --------------------------------------------------------------------------------
 Trust Radius=3.00D-01 FncErr=1.00D-07 GrdErr=1.00D-06 EigMax=2.50D+02 EigMin=1.00D-04
 Number of steps in this run=     64 maximum allowed number of steps=    100.
 GradGradGradGradGradGradGradGradGradGradGradGradGradGradGradGradGradGrad

 Leave Link  103 at Thu Jan 30 13:03:22 2025, MaxMem=   104857600 cpu:               0.0 elap:               0.0
 (Enter /sw/cluster/pub/apps//g16/l202.exe)
                          Input orientation:                          
 ---------------------------------------------------------------------
 Center     Atomic      Atomic             Coordinates (Angstroms)
 Number     Number       Type             X           Y           Z
 ---------------------------------------------------------------------
      1          6           0        1.196299    0.684992    0.000000
      2          6           0        1.208630   -0.697851    0.000000
      3          6           0        0.004982   -1.378686   -0.000000
      4          6           0       -1.196299   -0.684992    0.000000
      5          6           0       -1.208630    0.697851    0.000000
      6          6           0       -0.004982    1.378686   -0.000000
      7          1           0        2.146684   -1.239139    0.000000
      8          1           0       -2.146684    1.239139    0.000000
      9          9           0       -0.006825   -2.710864    0.000000
     10          9           0       -2.344201   -1.361074    0.000000
     11          9           0        0.006825    2.710864    0.000000
     12          9           0        2.344201    1.361074    0.000000
 ---------------------------------------------------------------------
                    Distance matrix (angstroms):
                    1          2          3          4          5
     1  C    0.000000
     2  C    1.382898   0.000000
     3  C    2.382856   1.382861   0.000000
     4  C    2.757060   2.404963   1.387187   0.000000
     5  C    2.404963   2.791260   2.405174   1.382898   0.000000
     6  C    1.387187   2.405174   2.757389   2.382856   1.382861
     7  H    2.146045   1.083022   2.146243   3.388600   3.874282
     8  H    3.388600   3.874282   3.388609   2.146045   1.083022
     9  F    3.602686   2.351500   1.332231   2.349256   3.614371
    10  F    4.089196   3.614205   2.349249   1.332204   2.351318
    11  F    2.349256   3.614371   4.089550   3.602686   2.351500
    12  F    1.332204   2.351318   3.602531   4.089196   3.614205
                    6          7          8          9         10
     6  C    0.000000
     7  H    3.388609   0.000000
     8  H    2.146243   4.957304   0.000000
     9  F    4.089550   2.608367   4.492384   0.000000
    10  F    3.602531   4.492540   2.607704   2.699122   0.000000
    11  F    1.332231   4.492384   2.608367   5.421745   4.701915
    12  F    2.349249   2.607704   4.492540   4.701915   5.421366
                   11         12
    11  F    0.000000
    12  F    2.699122   0.000000
 Symmetry turned off by external request.
 Stoichiometry    C6H2F4(1+,2)
 Framework group  C2H[SGH(C6H2F4)]
 Deg. of freedom    11
 Full point group                 C2H     NOp   4
 Rotational constants (GHZ):           2.2906170           1.0352885           0.7130237
 Leave Link  202 at Thu Jan 30 13:03:22 2025, MaxMem=   104857600 cpu:               0.0 elap:               0.0
 (Enter /sw/cluster/pub/apps//g16/l301.exe)
 Standard basis: 6-311++G(d,p) (5D, 7F)
 Ernie: Thresh=  0.10000D-02 Tol=  0.10000D-05 Strict=F.
   234 basis functions,   378 primitive gaussians,   244 cartesian basis functions
    37 alpha electrons       36 beta electrons
       nuclear repulsion energy       519.8789663184 Hartrees.
 IExCor= 1009 DFT=T Ex+Corr=PBE1PBE ExCW=0 ScaHFX=  0.250000
 ScaDFX=  0.750000  0.750000  1.000000  1.000000 ScalE2=  1.000000  1.000000
 IRadAn=      5 IRanWt=     -1 IRanGd=            0 ICorTp=0 IEmpDi=  4
 NAtoms=   12 NActive=   12 NUniq=   12 SFac= 1.00D+00 NAtFMM=   60 NAOKFM=F Big=F
 Integral buffers will be    131072 words long.
 Raffenetti 2 integral format.
 Two-electron integral symmetry is turned off.
 Leave Link  301 at Thu Jan 30 13:03:22 2025, MaxMem=   104857600 cpu:               0.0 elap:               0.0
 (Enter /sw/cluster/pub/apps//g16/l302.exe)
 NPDir=0 NMtPBC=     1 NCelOv=     1 NCel=       1 NClECP=     1 NCelD=      1
         NCelK=      1 NCelE2=     1 NClLst=     1 CellRange=     0.0.
 One-electron integrals computed using PRISM.
 NBasis=   234 RedAO= T EigKep=  2.20D-06  NBF=   234
 NBsUse=   234 1.00D-06 EigRej= -1.00D+00 NBFU=   234
 Precomputing XC quadrature grid using
 IXCGrd= 4 IRadAn=           5 IRanWt=          -1 IRanGd=           0 AccXCQ= 0.00D+00.
 Generated NRdTot=       0 NPtTot=           0 NUsed=           0 NTot=          32
 NSgBfM=   244   244   244   244   244 MxSgAt=    12 MxSgA2=    12.
 Leave Link  302 at Thu Jan 30 13:03:22 2025, MaxMem=   104857600 cpu:               0.1 elap:               0.1
 (Enter /sw/cluster/pub/apps//g16/l303.exe)
 DipDrv:  MaxL=1.
 Leave Link  303 at Thu Jan 30 13:03:22 2025, MaxMem=   104857600 cpu:               0.0 elap:               0.0
 (Enter /sw/cluster/pub/apps//g16/l401.exe)
 ExpMin= 3.60D-02 ExpMax= 1.14D+04 ExpMxC= 1.72D+03 IAcc=3 IRadAn=         5 AccDes= 0.00D+00
 Harris functional with IExCor= 1009 and IRadAn=       5 diagonalized for initial guess.
 HarFok:  IExCor= 1009 AccDes= 0.00D+00 IRadAn=         5 IDoV= 1 UseB2=F ITyADJ=14
 ICtDFT=  3500011 ScaDFX=  1.000000  1.000000  1.000000  1.000000
 FoFCou: FMM=F IPFlag=           0 FMFlag=      100000 FMFlg1=           0
         NFxFlg=           0 DoJE=T BraDBF=F KetDBF=T FulRan=T
         wScrn=  0.000000 ICntrl=       500 IOpCl=  0 I1Cent=   200000004 NGrid=           0
         NMat0=    1 NMatS0=      1 NMatT0=    0 NMatD0=    1 NMtDS0=    0 NMtDT0=    0
 Symmetry not used in FoFCou.
 Harris En= -628.467945124363    
 JPrj=0 DoOrth=F DoCkMO=F.
 Initial guess <Sx>= 0.0000 <Sy>= 0.0000 <Sz>= 0.5000 <S**2>= 0.7500 S= 0.5000
 Leave Link  401 at Thu Jan 30 13:03:23 2025, MaxMem=   104857600 cpu:               1.3 elap:               1.3
 (Enter /sw/cluster/pub/apps//g16/l502.exe)
 Two-electron integral symmetry not used.
 UHF open shell SCF:
 Using DIIS extrapolation, IDIIS=  1040.
 NGot=   104857600 LenX=   104735324 LenY=   104675347
 Requested convergence on RMS density matrix=1.00D-08 within 128 cycles.
 Requested convergence on MAX density matrix=1.00D-06.
 Requested convergence on             energy=1.00D-06.
 No special actions if energy rises.
 Fock matrices will be formed incrementally for  20 cycles.

 Cycle   1  Pass 1  IDiag  1:
 FoFJK:  IHMeth= 1 ICntrl=       0 DoSepK=F KAlg= 0 I1Cent=           0 FoldK=F
 IRaf= 930000000 NMat=       1 IRICut=       1 DoRegI=T DoRafI=F ISym2E= 0 IDoP0=0 IntGTp=1.
 FoFCou: FMM=F IPFlag=           0 FMFlag=      100000 FMFlg1=           0
         NFxFlg=           0 DoJE=F BraDBF=F KetDBF=F FulRan=T
         wScrn=  0.000000 ICntrl=         0 IOpCl=  1 I1Cent=           0 NGrid=           0
         NMat0=    1 NMatS0=      1 NMatT0=    0 NMatD0=    1 NMtDS0=    0 NMtDT0=    0
 Symmetry not used in FoFCou.
 E= -628.270405255749    
 DIIS: error= 2.82D-02 at cycle   1 NSaved=   1.
 NSaved= 1 IEnMin= 1 EnMin= -628.270405255749     IErMin= 1 ErrMin= 2.82D-02
 ErrMax= 2.82D-02  0.00D+00 EMaxC= 1.00D-01 BMatC= 5.53D-01 BMatP= 5.53D-01
 IDIUse=3 WtCom= 7.18D-01 WtEn= 2.82D-01
 Coeff-Com:  0.100D+01
 Coeff-En:   0.100D+01
 Coeff:      0.100D+01
 Gap=     0.302 Goal=   None    Shift=    0.000
 Gap=     0.013 Goal=   None    Shift=    0.000
 GapD=    0.013 DampG=0.250 DampE=0.500 DampFc=0.2500 IDamp=-1.
 Damping current iteration by 2.50D-01
 RMSDP=9.02D-03 MaxDP=2.82D-01              OVMax= 1.93D-01

 Cycle   2  Pass 1  IDiag  1:
 RMSU=  2.11D-03    CP:  1.02D+00
 E= -628.304837456791     Delta-E=       -0.034432201042 Rises=F Damp=T
 DIIS: error= 1.31D-02 at cycle   2 NSaved=   2.
 NSaved= 2 IEnMin= 2 EnMin= -628.304837456791     IErMin= 2 ErrMin= 1.31D-02
 ErrMax= 1.31D-02  0.00D+00 EMaxC= 1.00D-01 BMatC= 1.78D-01 BMatP= 5.53D-01
 IDIUse=3 WtCom= 8.69D-01 WtEn= 1.31D-01
 Coeff-Com: -0.101D+01 0.201D+01
 Coeff-En:   0.000D+00 0.100D+01
 Coeff:     -0.875D+00 0.187D+01
 Gap=     0.264 Goal=   None    Shift=    0.000
 Gap=     0.087 Goal=   None    Shift=    0.000
 RMSDP=6.11D-03 MaxDP=2.64D-01 DE=-3.44D-02 OVMax= 1.12D-01

 Cycle   3  Pass 1  IDiag  1:
 RMSU=  3.16D-03    CP:  9.98D-01  3.00D+00
 E= -628.366438531976     Delta-E=       -0.061601075185 Rises=F Damp=F
 DIIS: error= 3.89D-03 at cycle   3 NSaved=   3.
 NSaved= 3 IEnMin= 3 EnMin= -628.366438531976     IErMin= 3 ErrMin= 3.89D-03
 ErrMax= 3.89D-03  0.00D+00 EMaxC= 1.00D-01 BMatC= 6.13D-03 BMatP= 1.78D-01
 IDIUse=3 WtCom= 9.61D-01 WtEn= 3.89D-02
 Coeff-Com: -0.281D+00 0.458D+00 0.823D+00
 Coeff-En:   0.000D+00 0.000D+00 0.100D+01
 Coeff:     -0.270D+00 0.440D+00 0.830D+00
 Gap=     0.257 Goal=   None    Shift=    0.000
 Gap=     0.090 Goal=   None    Shift=    0.000
 RMSDP=6.98D-04 MaxDP=3.36D-02 DE=-6.16D-02 OVMax= 1.68D-02

 Cycle   4  Pass 1  IDiag  1:
 RMSU=  4.32D-04    CP:  9.87D-01  3.00D+00  9.06D-01
 E= -628.367616827317     Delta-E=       -0.001178295341 Rises=F Damp=F
 DIIS: error= 2.38D-03 at cycle   4 NSaved=   4.
 NSaved= 4 IEnMin= 4 EnMin= -628.367616827317     IErMin= 4 ErrMin= 2.38D-03
 ErrMax= 2.38D-03  0.00D+00 EMaxC= 1.00D-01 BMatC= 1.34D-03 BMatP= 6.13D-03
 IDIUse=3 WtCom= 9.76D-01 WtEn= 2.38D-02
 Coeff-Com: -0.861D-01 0.135D+00 0.373D+00 0.578D+00
 Coeff-En:   0.000D+00 0.000D+00 0.000D+00 0.100D+01
 Coeff:     -0.841D-01 0.132D+00 0.364D+00 0.588D+00
 Gap=     0.259 Goal=   None    Shift=    0.000
 Gap=     0.091 Goal=   None    Shift=    0.000
 RMSDP=3.56D-04 MaxDP=2.99D-02 DE=-1.18D-03 OVMax= 1.04D-02

 Cycle   5  Pass 1  IDiag  1:
 RMSU=  2.01D-04    CP:  9.82D-01  3.00D+00  9.50D-01  1.20D+00
 E= -628.367854950988     Delta-E=       -0.000238123671 Rises=F Damp=F
 DIIS: error= 1.27D-03 at cycle   5 NSaved=   5.
 NSaved= 5 IEnMin= 5 EnMin= -628.367854950988     IErMin= 5 ErrMin= 1.27D-03
 ErrMax= 1.27D-03  0.00D+00 EMaxC= 1.00D-01 BMatC= 5.40D-04 BMatP= 1.34D-03
 IDIUse=3 WtCom= 9.87D-01 WtEn= 1.27D-02
 Coeff-Com: -0.623D-02 0.446D-02 0.104D+00 0.396D+00 0.502D+00
 Coeff-En:   0.000D+00 0.000D+00 0.000D+00 0.172D+00 0.828D+00
 Coeff:     -0.615D-02 0.440D-02 0.102D+00 0.393D+00 0.506D+00
 Gap=     0.259 Goal=   None    Shift=    0.000
 Gap=     0.093 Goal=   None    Shift=    0.000
 RMSDP=1.18D-04 MaxDP=5.23D-03 DE=-2.38D-04 OVMax= 3.53D-03

 Cycle   6  Pass 1  IDiag  1:
 RMSU=  6.38D-05    CP:  9.83D-01  3.00D+00  9.64D-01  1.09D+00  6.91D-01
 E= -628.367955103784     Delta-E=       -0.000100152796 Rises=F Damp=F
 DIIS: error= 3.11D-04 at cycle   6 NSaved=   6.
 NSaved= 6 IEnMin= 6 EnMin= -628.367955103784     IErMin= 6 ErrMin= 3.11D-04
 ErrMax= 3.11D-04  0.00D+00 EMaxC= 1.00D-01 BMatC= 1.90D-05 BMatP= 5.40D-04
 IDIUse=3 WtCom= 9.97D-01 WtEn= 3.11D-03
 Coeff-Com:  0.111D-01-0.182D-01-0.371D-01 0.236D-01 0.778D-01 0.943D+00
 Coeff-En:   0.000D+00 0.000D+00 0.000D+00 0.000D+00 0.000D+00 0.100D+01
 Coeff:      0.110D-01-0.181D-01-0.370D-01 0.235D-01 0.776D-01 0.943D+00
 Gap=     0.259 Goal=   None    Shift=    0.000
 Gap=     0.093 Goal=   None    Shift=    0.000
 RMSDP=5.13D-05 MaxDP=3.53D-03 DE=-1.00D-04 OVMax= 2.09D-03

 Cycle   7  Pass 1  IDiag  1:
 RMSU=  3.24D-05    CP:  9.83D-01  3.00D+00  9.59D-01  1.11D+00  6.15D-01
                    CP:  1.42D+00
 E= -628.367969197067     Delta-E=       -0.000014093283 Rises=F Damp=F
 DIIS: error= 1.28D-04 at cycle   7 NSaved=   7.
 NSaved= 7 IEnMin= 7 EnMin= -628.367969197067     IErMin= 7 ErrMin= 1.28D-04
 ErrMax= 1.28D-04  0.00D+00 EMaxC= 1.00D-01 BMatC= 3.32D-06 BMatP= 1.90D-05
 IDIUse=3 WtCom= 9.99D-01 WtEn= 1.28D-03
 Coeff-Com:  0.255D-02-0.313D-02-0.324D-01-0.101D+00-0.114D+00 0.129D+00
 Coeff-Com:  0.112D+01
 Coeff-En:   0.000D+00 0.000D+00 0.000D+00 0.000D+00 0.000D+00 0.000D+00
 Coeff-En:   0.100D+01
 Coeff:      0.254D-02-0.312D-02-0.324D-01-0.101D+00-0.114D+00 0.129D+00
 Coeff:      0.112D+01
 Gap=     0.258 Goal=   None    Shift=    0.000
 Gap=     0.094 Goal=   None    Shift=    0.000
 RMSDP=2.90D-05 MaxDP=1.42D-03 DE=-1.41D-05 OVMax= 1.51D-03

 Cycle   8  Pass 1  IDiag  1:
 RMSU=  6.79D-06    CP:  9.83D-01  3.00D+00  9.59D-01  1.14D+00  6.37D-01
                    CP:  1.78D+00  1.35D+00
 E= -628.367972455560     Delta-E=       -0.000003258494 Rises=F Damp=F
 DIIS: error= 1.40D-05 at cycle   8 NSaved=   8.
 NSaved= 8 IEnMin= 8 EnMin= -628.367972455560     IErMin= 8 ErrMin= 1.40D-05
 ErrMax= 1.40D-05  0.00D+00 EMaxC= 1.00D-01 BMatC= 9.71D-08 BMatP= 3.32D-06
 IDIUse=1 WtCom= 1.00D+00 WtEn= 0.00D+00
 Coeff-Com: -0.427D-03 0.691D-03 0.141D-02-0.205D-02 0.464D-02-0.338D-01
 Coeff-Com: -0.454D-01 0.107D+01
 Coeff:     -0.427D-03 0.691D-03 0.141D-02-0.205D-02 0.464D-02-0.338D-01
 Coeff:     -0.454D-01 0.107D+01
 Gap=     0.258 Goal=   None    Shift=    0.000
 Gap=     0.094 Goal=   None    Shift=    0.000
 RMSDP=5.51D-06 MaxDP=3.24D-04 DE=-3.26D-06 OVMax= 1.36D-04

 Cycle   9  Pass 1  IDiag  1:
 RMSU=  2.40D-06    CP:  9.83D-01  3.00D+00  9.59D-01  1.13D+00  6.38D-01
                    CP:  1.83D+00  1.41D+00  1.18D+00
 E= -628.367972505444     Delta-E=       -0.000000049884 Rises=F Damp=F
 DIIS: error= 3.85D-06 at cycle   9 NSaved=   9.
 NSaved= 9 IEnMin= 9 EnMin= -628.367972505444     IErMin= 9 ErrMin= 3.85D-06
 ErrMax= 3.85D-06  0.00D+00 EMaxC= 1.00D-01 BMatC= 9.26D-09 BMatP= 9.71D-08
 IDIUse=1 WtCom= 1.00D+00 WtEn= 0.00D+00
 Coeff-Com: -0.224D-03 0.314D-03 0.199D-02 0.510D-02 0.769D-02-0.124D-01
 Coeff-Com: -0.702D-01 0.201D+00 0.867D+00
 Coeff:     -0.224D-03 0.314D-03 0.199D-02 0.510D-02 0.769D-02-0.124D-01
 Coeff:     -0.702D-01 0.201D+00 0.867D+00
 Gap=     0.258 Goal=   None    Shift=    0.000
 Gap=     0.094 Goal=   None    Shift=    0.000
 RMSDP=1.20D-06 MaxDP=5.50D-05 DE=-4.99D-08 OVMax= 4.10D-05

 Cycle  10  Pass 1  IDiag  1:
 RMSU=  6.46D-07    CP:  9.83D-01  3.00D+00  9.59D-01  1.14D+00  6.40D-01
                    CP:  1.83D+00  1.42D+00  1.22D+00  8.83D-01
 E= -628.367972507614     Delta-E=       -0.000000002171 Rises=F Damp=F
 DIIS: error= 3.15D-06 at cycle  10 NSaved=  10.
 NSaved=10 IEnMin=10 EnMin= -628.367972507614     IErMin=10 ErrMin= 3.15D-06
 ErrMax= 3.15D-06  0.00D+00 EMaxC= 1.00D-01 BMatC= 5.06D-09 BMatP= 9.26D-09
 IDIUse=1 WtCom= 1.00D+00 WtEn= 0.00D+00
 Coeff-Com: -0.738D-04 0.945D-04 0.914D-03 0.298D-02 0.321D-02-0.269D-02
 Coeff-Com: -0.304D-01-0.202D-01 0.463D+00 0.583D+00
 Coeff:     -0.738D-04 0.945D-04 0.914D-03 0.298D-02 0.321D-02-0.269D-02
 Coeff:     -0.304D-01-0.202D-01 0.463D+00 0.583D+00
 Gap=     0.258 Goal=   None    Shift=    0.000
 Gap=     0.094 Goal=   None    Shift=    0.000
 RMSDP=3.52D-07 MaxDP=1.57D-05 DE=-2.17D-09 OVMax= 2.48D-05

 Cycle  11  Pass 1  IDiag  1:
 RMSU=  2.94D-07    CP:  9.83D-01  3.00D+00  9.59D-01  1.14D+00  6.40D-01
                    CP:  1.83D+00  1.43D+00  1.23D+00  9.11D-01  9.89D-01
 E= -628.367972508652     Delta-E=       -0.000000001037 Rises=F Damp=F
 DIIS: error= 9.84D-07 at cycle  11 NSaved=  11.
 NSaved=11 IEnMin=11 EnMin= -628.367972508652     IErMin=11 ErrMin= 9.84D-07
 ErrMax= 9.84D-07  0.00D+00 EMaxC= 1.00D-01 BMatC= 7.32D-10 BMatP= 5.06D-09
 IDIUse=1 WtCom= 1.00D+00 WtEn= 0.00D+00
 Coeff-Com:  0.232D-04-0.365D-04-0.904D-04 0.597D-04-0.850D-03 0.205D-02
 Coeff-Com:  0.591D-02-0.667D-01-0.105D-01 0.278D+00 0.792D+00
 Coeff:      0.232D-04-0.365D-04-0.904D-04 0.597D-04-0.850D-03 0.205D-02
 Coeff:      0.591D-02-0.667D-01-0.105D-01 0.278D+00 0.792D+00
 Gap=     0.258 Goal=   None    Shift=    0.000
 Gap=     0.094 Goal=   None    Shift=    0.000
 RMSDP=2.20D-07 MaxDP=9.69D-06 DE=-1.04D-09 OVMax= 6.80D-06

 Cycle  12  Pass 1  IDiag  1:
 RMSU=  7.33D-08    CP:  9.83D-01  3.00D+00  9.59D-01  1.14D+00  6.39D-01
                    CP:  1.84D+00  1.43D+00  1.24D+00  9.49D-01  1.12D+00
                    CP:  8.65D-01
 E= -628.367972508819     Delta-E=       -0.000000000168 Rises=F Damp=F
 DIIS: error= 3.70D-07 at cycle  12 NSaved=  12.
 NSaved=12 IEnMin=12 EnMin= -628.367972508819     IErMin=12 ErrMin= 3.70D-07
 ErrMax= 3.70D-07  0.00D+00 EMaxC= 1.00D-01 BMatC= 6.30D-11 BMatP= 7.32D-10
 IDIUse=1 WtCom= 1.00D+00 WtEn= 0.00D+00
 Coeff-Com:  0.151D-04-0.226D-04-0.946D-04-0.146D-03-0.561D-03 0.106D-02
 Coeff-Com:  0.449D-02-0.288D-01-0.343D-01 0.879D-01 0.360D+00 0.611D+00
 Coeff:      0.151D-04-0.226D-04-0.946D-04-0.146D-03-0.561D-03 0.106D-02
 Coeff:      0.449D-02-0.288D-01-0.343D-01 0.879D-01 0.360D+00 0.611D+00
 Gap=     0.258 Goal=   None    Shift=    0.000
 Gap=     0.094 Goal=   None    Shift=    0.000
 RMSDP=4.66D-08 MaxDP=1.95D-06 DE=-1.68D-10 OVMax= 2.10D-06

 Cycle  13  Pass 1  IDiag  1:
 RMSU=  3.06D-08    CP:  9.83D-01  3.00D+00  9.59D-01  1.14D+00  6.39D-01
                    CP:  1.84D+00  1.43D+00  1.24D+00  9.54D-01  1.14D+00
                    CP:  9.20D-01  8.84D-01
 E= -628.367972508827     Delta-E=       -0.000000000008 Rises=F Damp=F
 DIIS: error= 1.50D-07 at cycle  13 NSaved=  13.
 NSaved=13 IEnMin=13 EnMin= -628.367972508827     IErMin=13 ErrMin= 1.50D-07
 ErrMax= 1.50D-07  0.00D+00 EMaxC= 1.00D-01 BMatC= 1.08D-11 BMatP= 6.30D-11
 IDIUse=1 WtCom= 1.00D+00 WtEn= 0.00D+00
 Coeff-Com:  0.753D-06-0.863D-06-0.174D-04-0.712D-04-0.519D-05-0.780D-04
 Coeff-Com:  0.358D-03 0.457D-02-0.127D-01-0.370D-01-0.400D-01 0.289D+00
 Coeff-Com:  0.796D+00
 Coeff:      0.753D-06-0.863D-06-0.174D-04-0.712D-04-0.519D-05-0.780D-04
 Coeff:      0.358D-03 0.457D-02-0.127D-01-0.370D-01-0.400D-01 0.289D+00
 Coeff:      0.796D+00
 Gap=     0.258 Goal=   None    Shift=    0.000
 Gap=     0.094 Goal=   None    Shift=    0.000
 RMSDP=2.68D-08 MaxDP=1.54D-06 DE=-7.50D-12 OVMax= 6.34D-07

 Cycle  14  Pass 1  IDiag  1:
 RMSU=  6.08D-09    CP:  9.83D-01  3.00D+00  9.59D-01  1.14D+00  6.39D-01
                    CP:  1.84D+00  1.43D+00  1.24D+00  9.54D-01  1.15D+00
                    CP:  9.39D-01  1.02D+00  8.99D-01
 E= -628.367972508831     Delta-E=       -0.000000000004 Rises=F Damp=F
 DIIS: error= 2.71D-08 at cycle  14 NSaved=  14.
 NSaved=14 IEnMin=14 EnMin= -628.367972508831     IErMin=14 ErrMin= 2.71D-08
 ErrMax= 2.71D-08  0.00D+00 EMaxC= 1.00D-01 BMatC= 1.86D-13 BMatP= 1.08D-11
 IDIUse=1 WtCom= 1.00D+00 WtEn= 0.00D+00
 Coeff-Com: -0.584D-06 0.846D-06 0.460D-05 0.145D-04 0.133D-04-0.185D-04
 Coeff-Com: -0.205D-03 0.415D-03 0.315D-02-0.178D-02-0.547D-02-0.483D-01
 Coeff-Com: -0.108D+00 0.116D+01
 Coeff:     -0.584D-06 0.846D-06 0.460D-05 0.145D-04 0.133D-04-0.185D-04
 Coeff:     -0.205D-03 0.415D-03 0.315D-02-0.178D-02-0.547D-02-0.483D-01
 Coeff:     -0.108D+00 0.116D+01
 Gap=     0.258 Goal=   None    Shift=    0.000
 Gap=     0.094 Goal=   None    Shift=    0.000
 RMSDP=7.45D-09 MaxDP=5.67D-07 DE=-4.32D-12 OVMax= 9.34D-07

 SCF Done:  E(UPBE1PBE) =  -628.367972509     A.U. after   14 cycles
            NFock= 14  Conv=0.74D-08     -V/T= 2.0029
 <Sx>= 0.0000 <Sy>= 0.0000 <Sz>= 0.5000 <S**2>= 0.7673 S= 0.5086
 <L.S>=  0.00000000000    
 KE= 6.265460973989D+02 PE=-2.508911063631D+03 EE= 7.341180274053D+02
 Annihilation of the first spin contaminant:
 S**2 before annihilation     0.7673,   after     0.7502
 Leave Link  502 at Thu Jan 30 13:04:28 2025, MaxMem=   104857600 cpu:              64.7 elap:              64.8
 (Enter /sw/cluster/pub/apps//g16/l601.exe)
 Copying SCF densities to generalized density rwf, IOpCl= 1 IROHF=0.

 **********************************************************************

            Population analysis using the SCF density.

 **********************************************************************

 Alpha  occ. eigenvalues --  -25.03293 -25.03293 -25.03290 -25.03290 -10.59915
 Alpha  occ. eigenvalues --  -10.59913 -10.59853 -10.59852 -10.48868 -10.48866
 Alpha  occ. eigenvalues --   -1.52211  -1.52138  -1.50703  -1.50661  -1.17965
 Alpha  occ. eigenvalues --   -1.05681  -1.05034  -0.93465  -0.90702  -0.84031
 Alpha  occ. eigenvalues --   -0.83176  -0.81814  -0.79475  -0.77142  -0.75033
 Alpha  occ. eigenvalues --   -0.74948  -0.72085  -0.71482  -0.71400  -0.70799
 Alpha  occ. eigenvalues --   -0.67956  -0.65802  -0.63441  -0.63319  -0.61679
 Alpha  occ. eigenvalues --   -0.52379  -0.52188
 Alpha virt. eigenvalues --   -0.26410  -0.26323  -0.19426  -0.15488  -0.13538
 Alpha virt. eigenvalues --   -0.11364  -0.09995  -0.09431  -0.07919  -0.07702
 Alpha virt. eigenvalues --   -0.06872  -0.05006  -0.04687  -0.04002  -0.03980
 Alpha virt. eigenvalues --   -0.01999  -0.01086  -0.00900  -0.00241  -0.00195
 Alpha virt. eigenvalues --    0.00140   0.00383   0.00573   0.01293   0.04028
 Alpha virt. eigenvalues --    0.04423   0.05675   0.06930   0.07075   0.07684
 Alpha virt. eigenvalues --    0.08928   0.09858   0.09873   0.11292   0.11305
 Alpha virt. eigenvalues --    0.13686   0.14715   0.15342   0.16230   0.18755
 Alpha virt. eigenvalues --    0.18884   0.19293   0.19376   0.22384   0.22767
 Alpha virt. eigenvalues --    0.23118   0.24100   0.25164   0.25616   0.27321
 Alpha virt. eigenvalues --    0.27524   0.27670   0.29041   0.29236   0.33341
 Alpha virt. eigenvalues --    0.35121   0.35572   0.36160   0.37568   0.38066
 Alpha virt. eigenvalues --    0.38520   0.38971   0.40922   0.41077   0.42750
 Alpha virt. eigenvalues --    0.48589   0.50248   0.51526   0.52128   0.52719
 Alpha virt. eigenvalues --    0.60712   0.60980   0.65038   0.66533   0.67082
 Alpha virt. eigenvalues --    0.70417   0.70573   0.74072   0.74265   0.77515
 Alpha virt. eigenvalues --    0.80215   0.80862   0.82156   0.87951   0.88073
 Alpha virt. eigenvalues --    0.89419   0.90646   0.96594   1.05609   1.11315
 Alpha virt. eigenvalues --    1.18785   1.19867   1.22049   1.23071   1.23656
 Alpha virt. eigenvalues --    1.25237   1.25377   1.27446   1.27510   1.31466
 Alpha virt. eigenvalues --    1.32975   1.33469   1.34010   1.34794   1.36096
 Alpha virt. eigenvalues --    1.39263   1.41229   1.44400   1.45318   1.50519
 Alpha virt. eigenvalues --    1.51664   1.52247   1.61810   1.62034   1.64673
 Alpha virt. eigenvalues --    1.72762   1.76207   1.76721   1.79464   1.81388
 Alpha virt. eigenvalues --    1.82999   1.84802   1.87438   1.91146   1.92712
 Alpha virt. eigenvalues --    1.94284   1.99169   2.04319   2.04586   2.16393
 Alpha virt. eigenvalues --    2.22681   2.35634   2.36997   2.43157   2.45412
 Alpha virt. eigenvalues --    2.50322   2.53553   2.54039   2.58607   2.59638
 Alpha virt. eigenvalues --    2.64110   2.82942   2.85865   2.88621   2.89502
 Alpha virt. eigenvalues --    2.93941   3.03168   3.10527   3.22891   3.30935
 Alpha virt. eigenvalues --    3.52235   3.52811   3.53955   3.55468   3.55915
 Alpha virt. eigenvalues --    3.56946   3.57462   3.62840   3.63399   3.64823
 Alpha virt. eigenvalues --    3.74515   3.75125   3.75503   3.79758   3.81202
 Alpha virt. eigenvalues --    3.81388   3.86786   3.92399   3.99687   4.00403
 Alpha virt. eigenvalues --    4.56556   4.61600   4.63371   4.73647   4.74814
 Alpha virt. eigenvalues --    6.09535   6.12139   6.15282   6.16837   6.20907
 Alpha virt. eigenvalues --    6.23312   6.29580   6.33419   6.42266   6.56366
 Alpha virt. eigenvalues --    6.65202   6.68380  23.29099  23.66699  23.75145
 Alpha virt. eigenvalues --   23.83867  23.94508  24.02074  66.68626  66.69771
 Alpha virt. eigenvalues --   66.73158  66.75131
  Beta  occ. eigenvalues --  -25.03033 -25.03033 -25.03031 -25.03031 -10.59485
  Beta  occ. eigenvalues --  -10.59485 -10.59428 -10.59427 -10.49048 -10.49047
  Beta  occ. eigenvalues --   -1.51625  -1.51554  -1.50147  -1.50104  -1.16961
  Beta  occ. eigenvalues --   -1.04914  -1.03802  -0.92998  -0.90040  -0.83744
  Beta  occ. eigenvalues --   -0.82862  -0.81553  -0.79033  -0.74822  -0.74786
  Beta  occ. eigenvalues --   -0.72586  -0.71339  -0.70761  -0.70329  -0.69647
  Beta  occ. eigenvalues --   -0.67763  -0.65508  -0.63108  -0.63041  -0.58950
  Beta  occ. eigenvalues --   -0.51789
  Beta virt. eigenvalues --   -0.42384  -0.24908  -0.22297  -0.18805  -0.15045
  Beta virt. eigenvalues --   -0.13419  -0.11316  -0.09271  -0.07983  -0.07778
  Beta virt. eigenvalues --   -0.07297  -0.06806  -0.04778  -0.04412  -0.03895
  Beta virt. eigenvalues --   -0.03719  -0.01764  -0.00910  -0.00094   0.00048
  Beta virt. eigenvalues --    0.00096   0.00190   0.00500   0.00580   0.01377
  Beta virt. eigenvalues --    0.04306   0.04467   0.05732   0.06968   0.07481
  Beta virt. eigenvalues --    0.07799   0.09130   0.10115   0.10168   0.11607
  Beta virt. eigenvalues --    0.11842   0.13735   0.14780   0.15738   0.16303
  Beta virt. eigenvalues --    0.18828   0.19088   0.19427   0.19441   0.22395
  Beta virt. eigenvalues --    0.22889   0.23294   0.24220   0.25317   0.25738
  Beta virt. eigenvalues --    0.27517   0.27565   0.27894   0.29262   0.30081
  Beta virt. eigenvalues --    0.33339   0.35519   0.36275   0.37288   0.37501
  Beta virt. eigenvalues --    0.38089   0.38638   0.38887   0.41119   0.41141
  Beta virt. eigenvalues --    0.44040   0.49073   0.50968   0.51652   0.52383
  Beta virt. eigenvalues --    0.53951   0.60790   0.61234   0.65190   0.66934
  Beta virt. eigenvalues --    0.67715   0.70673   0.72016   0.74079   0.74749
  Beta virt. eigenvalues --    0.78183   0.80598   0.80989   0.82523   0.88110
  Beta virt. eigenvalues --    0.89626   0.89881   0.92537   0.97310   1.06117
  Beta virt. eigenvalues --    1.11950   1.19512   1.20066   1.22234   1.23382
  Beta virt. eigenvalues --    1.24381   1.25892   1.25935   1.27547   1.27584
  Beta virt. eigenvalues --    1.32104   1.32952   1.34178   1.34214   1.34987
  Beta virt. eigenvalues --    1.36197   1.39452   1.41712   1.44988   1.46823
  Beta virt. eigenvalues --    1.51954   1.51971   1.52449   1.62013   1.63601
  Beta virt. eigenvalues --    1.65304   1.73328   1.76138   1.77009   1.79857
  Beta virt. eigenvalues --    1.81738   1.83144   1.85203   1.88542   1.91651
  Beta virt. eigenvalues --    1.93285   1.94624   1.99594   2.04451   2.05593
  Beta virt. eigenvalues --    2.16648   2.22795   2.37311   2.37322   2.43323
  Beta virt. eigenvalues --    2.47511   2.50270   2.53517   2.54463   2.59652
  Beta virt. eigenvalues --    2.60991   2.64045   2.84308   2.86003   2.89016
  Beta virt. eigenvalues --    2.89797   2.94373   3.03431   3.10919   3.23150
  Beta virt. eigenvalues --    3.31225   3.52754   3.53184   3.54238   3.56196
  Beta virt. eigenvalues --    3.56640   3.57680   3.58207   3.63619   3.63894
  Beta virt. eigenvalues --    3.65572   3.75319   3.75942   3.76149   3.80582
  Beta virt. eigenvalues --    3.81316   3.82207   3.86886   3.92815   3.99868
  Beta virt. eigenvalues --    4.00604   4.56871   4.61911   4.64213   4.73983
  Beta virt. eigenvalues --    4.75146   6.10572   6.13171   6.16310   6.17865
  Beta virt. eigenvalues --    6.21094   6.23496   6.29762   6.33607   6.42473
  Beta virt. eigenvalues --    6.56577   6.65429   6.68624  23.29398  23.67144
  Beta virt. eigenvalues --   23.75388  23.84310  23.94471  24.02119  66.68846
  Beta virt. eigenvalues --   66.69991  66.73378  66.75351
          Condensed to atoms (all electrons):
               1          2          3          4          5          6
     1  C   10.726051  -0.305930   0.993471  -1.364865  -1.751778  -2.306332
     2  C   -0.305930  11.271014  -0.306947  -1.751778  -1.865706  -1.751812
     3  C    0.993471  -0.306947  10.726516  -2.306332  -1.751812  -1.363955
     4  C   -1.364865  -1.751778  -2.306332  10.726051  -0.305930   0.993471
     5  C   -1.751778  -1.865706  -1.751812  -0.305930  11.271014  -0.306947
     6  C   -2.306332  -1.751812  -1.363955   0.993471  -0.306947  10.726516
     7  H   -0.096389   0.560616  -0.096417  -0.040768  -0.003079  -0.040741
     8  H   -0.040768  -0.003079  -0.040741  -0.096389   0.560616  -0.096417
     9  F    0.021673  -0.248198   0.658634  -0.310905  -0.001303  -0.024351
    10  F   -0.024383  -0.001218  -0.310843   0.658577  -0.248274   0.021708
    11  F   -0.310905  -0.001303  -0.024351   0.021673  -0.248198   0.658634
    12  F    0.658577  -0.248274   0.021708  -0.024383  -0.001218  -0.310843
               7          8          9         10         11         12
     1  C   -0.096389  -0.040768   0.021673  -0.024383  -0.310905   0.658577
     2  C    0.560616  -0.003079  -0.248198  -0.001218  -0.001303  -0.248274
     3  C   -0.096417  -0.040741   0.658634  -0.310843  -0.024351   0.021708
     4  C   -0.040768  -0.096389  -0.310905   0.658577   0.021673  -0.024383
     5  C   -0.003079   0.560616  -0.001303  -0.248274  -0.248198  -0.001218
     6  C   -0.040741  -0.096417  -0.024351   0.021708   0.658634  -0.310843
     7  H    0.395223   0.000659  -0.018241   0.000922   0.000921  -0.018249
     8  H    0.000659   0.395223   0.000921  -0.018249  -0.018241   0.000922
     9  F   -0.018241   0.000921   8.965439   0.011624   0.000133   0.000019
    10  F    0.000922  -0.018249   0.011624   8.965347   0.000019   0.000133
    11  F    0.000921  -0.018241   0.000133   0.000019   8.965439   0.011624
    12  F   -0.018249   0.000922   0.000019   0.000133   0.011624   8.965347
          Atomic-Atomic Spin Densities.
               1          2          3          4          5          6
     1  C    0.232957   0.029788  -0.037676   0.013241  -0.013444   0.087239
     2  C    0.029788  -0.201245   0.029710  -0.013444   0.012075  -0.013425
     3  C   -0.037676   0.029710   0.232546   0.087239  -0.013425   0.013261
     4  C    0.013241  -0.013444   0.087239   0.232957   0.029788  -0.037676
     5  C   -0.013444   0.012075  -0.013425   0.029788  -0.201245   0.029710
     6  C    0.087239  -0.013425   0.013261  -0.037676   0.029710   0.232546
     7  H    0.003257  -0.005913   0.003255   0.000147  -0.000473   0.000145
     8  H    0.000147  -0.000473   0.000145   0.003257  -0.005913   0.003255
     9  F   -0.000636   0.002778  -0.042066  -0.002637   0.001185  -0.000437
    10  F   -0.000436   0.001186  -0.002629  -0.042131   0.002772  -0.000635
    11  F   -0.002637   0.001185  -0.000437  -0.000636   0.002778  -0.042066
    12  F   -0.042131   0.002772  -0.000635  -0.000436   0.001186  -0.002629
               7          8          9         10         11         12
     1  C    0.003257   0.000147  -0.000636  -0.000436  -0.002637  -0.042131
     2  C   -0.005913  -0.000473   0.002778   0.001186   0.001185   0.002772
     3  C    0.003255   0.000145  -0.042066  -0.002629  -0.000437  -0.000635
     4  C    0.000147   0.003257  -0.002637  -0.042131  -0.000636  -0.000436
     5  C   -0.000473  -0.005913   0.001185   0.002772   0.002778   0.001186
     6  C    0.000145   0.003255  -0.000437  -0.000635  -0.042066  -0.002629
     7  H    0.003710  -0.000016  -0.000129   0.000077   0.000077  -0.000130
     8  H   -0.000016   0.003710   0.000077  -0.000130  -0.000129   0.000077
     9  F   -0.000129   0.000077   0.096215   0.001648  -0.000009   0.000001
    10  F    0.000077  -0.000130   0.001648   0.096344   0.000001  -0.000009
    11  F    0.000077  -0.000129  -0.000009   0.000001   0.096215   0.001648
    12  F   -0.000130   0.000077   0.000001  -0.000009   0.001648   0.096344
 Mulliken charges and spin densities:
               1          2
     1  C   -0.198422   0.269667
     2  C    0.652617  -0.155006
     3  C   -0.198929   0.269288
     4  C   -0.198422   0.269667
     5  C    0.652617  -0.155006
     6  C   -0.198929   0.269288
     7  H    0.355543   0.004005
     8  H    0.355543   0.004005
     9  F   -0.055446   0.055989
    10  F   -0.055363   0.056057
    11  F   -0.055446   0.055989
    12  F   -0.055363   0.056057
 Sum of Mulliken charges =   1.00000   1.00000
 Mulliken charges and spin densities with hydrogens summed into heavy atoms:
               1          2
     1  C   -0.198422   0.269667
     2  C    1.008160  -0.151001
     3  C   -0.198929   0.269288
     4  C   -0.198422   0.269667
     5  C    1.008160  -0.151001
     6  C   -0.198929   0.269288
     9  F   -0.055446   0.055989
    10  F   -0.055363   0.056057
    11  F   -0.055446   0.055989
    12  F   -0.055363   0.056057
 Electronic spatial extent (au):  <R**2>=           1335.7765
 Charge=              1.0000 electrons
 Dipole moment (field-independent basis, Debye):
    X=             -0.0000    Y=             -0.0000    Z=             -0.0000  Tot=              0.0000
 Quadrupole moment (field-independent basis, Debye-Ang):
   XX=            -40.6487   YY=            -45.1861   ZZ=            -49.8153
   XY=             -3.9255   XZ=              0.0000   YZ=              0.0000
 Traceless Quadrupole moment (field-independent basis, Debye-Ang):
   XX=              4.5680   YY=              0.0306   ZZ=             -4.5986
   XY=             -3.9255   XZ=              0.0000   YZ=              0.0000
 Octapole moment (field-independent basis, Debye-Ang**2):
  XXX=              0.0000  YYY=             -0.0000  ZZZ=              0.0000  XYY=             -0.0000
  XXY=             -0.0000  XXZ=              0.0000  XZZ=              0.0000  YZZ=             -0.0000
  YYZ=             -0.0000  XYZ=              0.0000
 Hexadecapole moment (field-independent basis, Debye-Ang**3):
 XXXX=           -516.7315 YYYY=           -746.6282 ZZZZ=            -42.9211 XXXY=           -110.2508
 XXXZ=              0.0000 YYYX=            -88.7628 YYYZ=              0.0000 ZZZX=              0.0000
 ZZZY=              0.0000 XXYY=           -202.2931 XXZZ=           -100.3919 YYZZ=           -128.3770
 XXYZ=              0.0000 YYXZ=              0.0000 ZZXY=            -24.2258
 N-N= 5.198789663184D+02 E-N=-2.508911063711D+03  KE= 6.265460973989D+02
                          Isotropic Fermi Contact Couplings
        Atom                 a.u.       MegaHertz       Gauss      10(-4) cm-1
     1  C(13)              0.00805       9.04594       3.22782       3.01740
     2  C(13)             -0.02062     -23.18066      -8.27144      -7.73224
     3  C(13)              0.00802       9.01325       3.21615       3.00650
     4  C(13)              0.00805       9.04594       3.22782       3.01740
     5  C(13)             -0.02062     -23.18066      -8.27144      -7.73224
     6  C(13)              0.00802       9.01325       3.21615       3.00650
     7  H(1)               0.00112       5.02486       1.79300       1.67611
     8  H(1)               0.00112       5.02486       1.79300       1.67611
     9  F(19)              0.01290      54.25735      19.36037      18.09830
    10  F(19)              0.01291      54.32814      19.38563      18.12192
    11  F(19)              0.01290      54.25735      19.36037      18.09830
    12  F(19)              0.01291      54.32814      19.38563      18.12192
 --------------------------------------------------------
       Center         ----  Spin Dipole Couplings  ----
                      3XX-RR        3YY-RR        3ZZ-RR
 --------------------------------------------------------
     1   Atom       -0.161652     -0.176228      0.337880
     2   Atom        0.055309      0.057736     -0.113046
     3   Atom       -0.171883     -0.165566      0.337448
     4   Atom       -0.161652     -0.176228      0.337880
     5   Atom        0.055309      0.057736     -0.113046
     6   Atom       -0.171883     -0.165566      0.337448
     7   Atom        0.001404      0.004453     -0.005857
     8   Atom        0.001404      0.004453     -0.005857
     9   Atom       -0.264954     -0.284568      0.549522
    10   Atom       -0.278917     -0.271275      0.550192
    11   Atom       -0.264954     -0.284568      0.549522
    12   Atom       -0.278917     -0.271275      0.550192
 --------------------------------------------------------
                        XY            XZ            YZ
 --------------------------------------------------------
     1   Atom       -0.000563     -0.000000      0.000000
     2   Atom        0.002098      0.000000      0.000000
     3   Atom       -0.006602     -0.000000      0.000000
     4   Atom       -0.000563      0.000000     -0.000000
     5   Atom        0.002098     -0.000000     -0.000000
     6   Atom       -0.006602     -0.000000     -0.000000
     7   Atom        0.002618      0.000000      0.000000
     8   Atom        0.002618     -0.000000     -0.000000
     9   Atom       -0.001265     -0.000000      0.000000
    10   Atom       -0.009135      0.000000     -0.000000
    11   Atom       -0.001265      0.000000     -0.000000
    12   Atom       -0.009135     -0.000000      0.000000
 --------------------------------------------------------


 ---------------------------------------------------------------------------------
              Anisotropic Spin Dipole Couplings in Principal Axis System
 ---------------------------------------------------------------------------------

       Atom             a.u.   MegaHertz   Gauss  10(-4) cm-1        Axes

              Baa    -0.1762   -23.651    -8.439    -7.889  0.0385  0.9993 -0.0000
     1 C(13)  Bbb    -0.1616   -21.689    -7.739    -7.235  0.9993 -0.0385  0.0000
              Bcc     0.3379    45.340    16.179    15.124 -0.0000  0.0000  1.0000
 
              Baa    -0.1130   -15.170    -5.413    -5.060 -0.0000 -0.0000  1.0000
     2 C(13)  Bbb     0.0541     7.260     2.590     2.422  0.8663 -0.4996  0.0000
              Bcc     0.0589     7.910     2.822     2.639  0.4996  0.8663  0.0000
 
              Baa    -0.1760   -23.623    -8.429    -7.880  0.8460  0.5331 -0.0000
     3 C(13)  Bbb    -0.1614   -21.659    -7.728    -7.225 -0.5331  0.8460 -0.0000
              Bcc     0.3374    45.282    16.158    15.105 -0.0000  0.0000  1.0000
 
              Baa    -0.1762   -23.651    -8.439    -7.889  0.0385  0.9993  0.0000
     4 C(13)  Bbb    -0.1616   -21.689    -7.739    -7.235  0.9993 -0.0385 -0.0000
              Bcc     0.3379    45.340    16.179    15.124  0.0000 -0.0000  1.0000
 
              Baa    -0.1130   -15.170    -5.413    -5.060  0.0000  0.0000  1.0000
     5 C(13)  Bbb     0.0541     7.260     2.590     2.422  0.8663 -0.4996 -0.0000
              Bcc     0.0589     7.910     2.822     2.639  0.4996  0.8663 -0.0000
 
              Baa    -0.1760   -23.623    -8.429    -7.880  0.8460  0.5331  0.0000
     6 C(13)  Bbb    -0.1614   -21.659    -7.728    -7.225 -0.5331  0.8460  0.0000
              Bcc     0.3374    45.282    16.158    15.105 -0.0000 -0.0000  1.0000
 
              Baa    -0.0059    -3.125    -1.115    -1.042 -0.0000  0.0000  1.0000
     7 H(1)   Bbb    -0.0001    -0.054    -0.019    -0.018  0.8669 -0.4984  0.0000
              Bcc     0.0060     3.179     1.134     1.060  0.4984  0.8669  0.0000
 
              Baa    -0.0059    -3.125    -1.115    -1.042  0.0000 -0.0000  1.0000
     8 H(1)   Bbb    -0.0001    -0.054    -0.019    -0.018  0.8669 -0.4984 -0.0000
              Bcc     0.0060     3.179     1.134     1.060  0.4984  0.8669 -0.0000
 
              Baa    -0.2846  -142.958   -51.011   -47.686  0.0641  0.9979 -0.0000
     9 F(19)  Bbb    -0.2649  -133.026   -47.467   -44.373  0.9979 -0.0641  0.0000
              Bcc     0.5495   275.984    98.478    92.058 -0.0000  0.0000  1.0000
 
              Baa    -0.2850  -143.133   -51.074   -47.744  0.8324  0.5541 -0.0000
    10 F(19)  Bbb    -0.2652  -133.187   -47.525   -44.427 -0.5541  0.8324  0.0000
              Bcc     0.5502   276.321    98.598    92.171  0.0000 -0.0000  1.0000
 
              Baa    -0.2846  -142.958   -51.011   -47.686  0.0641  0.9979  0.0000
    11 F(19)  Bbb    -0.2649  -133.026   -47.467   -44.373  0.9979 -0.0641 -0.0000
              Bcc     0.5495   275.984    98.478    92.058  0.0000 -0.0000  1.0000
 
              Baa    -0.2850  -143.133   -51.074   -47.744  0.8324  0.5541  0.0000
    12 F(19)  Bbb    -0.2652  -133.187   -47.525   -44.427 -0.5541  0.8324 -0.0000
              Bcc     0.5502   276.321    98.598    92.171 -0.0000  0.0000  1.0000
 

 ---------------------------------------------------------------------------------

 No NMR shielding tensors so no spin-rotation constants.
 Leave Link  601 at Thu Jan 30 13:04:28 2025, MaxMem=   104857600 cpu:               0.1 elap:               0.1
 (Enter /sw/cluster/pub/apps//g16/l701.exe)
 ... and contract with generalized density number  0.
 Compute integral first derivatives.
 Leave Link  701 at Thu Jan 30 13:04:28 2025, MaxMem=   104857600 cpu:               0.1 elap:               0.1
 (Enter /sw/cluster/pub/apps//g16/l702.exe)
 L702 exits ... SP integral derivatives will be done elsewhere.
 Leave Link  702 at Thu Jan 30 13:04:28 2025, MaxMem=   104857600 cpu:               0.0 elap:               0.0
 (Enter /sw/cluster/pub/apps//g16/l703.exe)
 Integral derivatives from FoFJK, PRISM(SPDF).
 Compute integral first derivatives, UseDBF=F ICtDFT=           0.
 Calling FoFJK, ICntrl=      2127 FMM=F ISym2X=0 I1Cent= 0 IOpClX= 1 NMat=1 NMatS=1 NMatT=0.
 FoFJK:  IHMeth= 1 ICntrl=    2127 DoSepK=F KAlg= 0 I1Cent=           0 FoldK=F
 IRaf=         0 NMat=       1 IRICut=       1 DoRegI=T DoRafI=F ISym2E= 0 IDoP0=0 IntGTp=1.
 FoFCou: FMM=F IPFlag=           0 FMFlag=      100000 FMFlg1=         800
         NFxFlg=           0 DoJE=F BraDBF=F KetDBF=F FulRan=T
         wScrn=  0.000000 ICntrl=      2127 IOpCl=  1 I1Cent=           0 NGrid=           0
         NMat0=    1 NMatS0=      1 NMatT0=    0 NMatD0=    1 NMtDS0=    0 NMtDT0=    0
 Symmetry not used in FoFCou.
 Leave Link  703 at Thu Jan 30 13:04:42 2025, MaxMem=   104857600 cpu:              14.0 elap:              14.0
 (Enter /sw/cluster/pub/apps//g16/l716.exe)
 Dipole        =-5.00577357D-12-1.04227738D-12-1.12163634D-09
 -------------------------------------------------------------------
 Center     Atomic                   Forces (Hartrees/Bohr)
 Number     Number              X              Y              Z
 -------------------------------------------------------------------
      1        6           0.065944751   -0.010415330   -0.000000000
      2        6           0.005079563   -0.002943551   -0.000000000
      3        6           0.041986591   -0.051887896    0.000000000
      4        6          -0.065944751    0.010415330   -0.000000000
      5        6          -0.005079563    0.002943551   -0.000000000
      6        6          -0.041986591    0.051887896    0.000000000
      7        1           0.001244772   -0.000736012    0.000000000
      8        1          -0.001244772    0.000736012    0.000000000
      9        9          -0.002161607    0.036717248   -0.000000000
     10        9           0.032869763    0.016453257    0.000000000
     11        9           0.002161607   -0.036717248   -0.000000000
     12        9          -0.032869763   -0.016453257    0.000000000
 -------------------------------------------------------------------
 Cartesian Forces:  Max     0.065944751 RMS     0.025443766
 Leave Link  716 at Thu Jan 30 13:04:42 2025, MaxMem=   104857600 cpu:               0.0 elap:               0.0
 (Enter /sw/cluster/pub/apps//g16/l103.exe)

 GradGradGradGradGradGradGradGradGradGradGradGradGradGradGradGradGradGrad
 Berny optimization.
 FormGI is forming the generalized inverse of G from B-inverse, IUseBI=4.
 Internal  Forces:  Max     0.045734830 RMS     0.013662509
 Search for a local minimum.
 Step number   1 out of a maximum of   64
 All quantities printed in internal units (Hartrees-Bohrs-Radians)
 RMS Force = .13663D-01 SwitMx=.10000D-02 MixMth= 1
 Mixed Optimization -- RFO/linear search
 Second derivative matrix not updated -- first step.
 ITU=  0
     Eigenvalues ---    0.02277   0.02277   0.02287   0.02287   0.02296
     Eigenvalues ---    0.02296   0.02315   0.02315   0.02315   0.16000
     Eigenvalues ---    0.16000   0.23000   0.23991   0.25000   0.25000
     Eigenvalues ---    0.25000   0.25000   0.25000   0.35632   0.35632
     Eigenvalues ---    0.43823   0.44082   0.47812   0.48342   0.48576
     Eigenvalues ---    0.48583   0.58982   0.58982   0.58988   0.58988
 RFO step:  Lambda=-1.91558063D-02 EMin= 2.27700693D-02
 Linear search not attempted -- first point.
 Iteration  1 RMS(Cart)=  0.03267432 RMS(Int)=  0.00026732
 Iteration  2 RMS(Cart)=  0.00045366 RMS(Int)=  0.00000010
 Iteration  3 RMS(Cart)=  0.00000012 RMS(Int)=  0.00000000
 ITry= 1 IFail=0 DXMaxC= 7.47D-02 DCOld= 1.00D+10 DXMaxT= 3.00D-01 DXLimC= 3.00D+00 Rises=F
 Variable       Old X    -DE/DX   Delta X   Delta X   Delta X     New X
                                 (Linear)    (Quad)   (Total)
    R1        2.61330  -0.00395   0.00000  -0.00782  -0.00782   2.60547
    R2        2.62140   0.04573   0.00000   0.09197   0.09197   2.71337
    R3        2.51750  -0.03667   0.00000  -0.06021  -0.06021   2.45729
    R4        2.61323  -0.00397   0.00000  -0.00786  -0.00786   2.60537
    R5        2.04661   0.00145   0.00000   0.00385   0.00385   2.05047
    R6        2.62140   0.04573   0.00000   0.09197   0.09197   2.71337
    R7        2.51755  -0.03670   0.00000  -0.06026  -0.06026   2.45729
    R8        2.61330  -0.00395   0.00000  -0.00782  -0.00782   2.60547
    R9        2.51750  -0.03667   0.00000  -0.06021  -0.06021   2.45729
   R10        2.61323  -0.00397   0.00000  -0.00786  -0.00786   2.60537
   R11        2.04661   0.00145   0.00000   0.00385   0.00385   2.05047
   R12        2.51755  -0.03670   0.00000  -0.06026  -0.06026   2.45729
    A1        2.10340   0.00450   0.00000   0.01807   0.01807   2.12147
    A2        2.09415   0.00090   0.00000   0.00267   0.00267   2.09682
    A3        2.08564  -0.00540   0.00000  -0.02075  -0.02075   2.06489
    A4        2.07665  -0.00904   0.00000  -0.03628  -0.03628   2.04038
    A5        2.10307   0.00454   0.00000   0.01823   0.01823   2.12130
    A6        2.10346   0.00450   0.00000   0.01805   0.01805   2.12151
    A7        2.10314   0.00454   0.00000   0.01820   0.01820   2.12134
    A8        2.09443   0.00086   0.00000   0.00253   0.00253   2.09696
    A9        2.08562  -0.00540   0.00000  -0.02073  -0.02073   2.06488
   A10        2.10340   0.00450   0.00000   0.01807   0.01807   2.12147
   A11        2.08564  -0.00540   0.00000  -0.02075  -0.02075   2.06489
   A12        2.09415   0.00090   0.00000   0.00267   0.00267   2.09682
   A13        2.07665  -0.00904   0.00000  -0.03628  -0.03628   2.04038
   A14        2.10307   0.00454   0.00000   0.01823   0.01823   2.12130
   A15        2.10346   0.00450   0.00000   0.01805   0.01805   2.12151
   A16        2.10314   0.00454   0.00000   0.01820   0.01820   2.12134
   A17        2.08562  -0.00540   0.00000  -0.02073  -0.02073   2.06488
   A18        2.09443   0.00086   0.00000   0.00253   0.00253   2.09696
    D1       -0.00000   0.00000   0.00000   0.00000   0.00000   0.00000
    D2        3.14159   0.00000   0.00000   0.00000   0.00000   3.14159
    D3        3.14159  -0.00000   0.00000  -0.00000   0.00000   3.14159
    D4        0.00000  -0.00000   0.00000  -0.00000  -0.00000   0.00000
    D5        0.00000  -0.00000   0.00000  -0.00000  -0.00000   0.00000
    D6        3.14159   0.00000   0.00000   0.00000   0.00000   3.14159
    D7        3.14159  -0.00000   0.00000  -0.00000   0.00000   3.14159
    D8       -0.00000   0.00000   0.00000   0.00000   0.00000   0.00000
    D9       -0.00000   0.00000   0.00000   0.00000   0.00000   0.00000
   D10        3.14159  -0.00000   0.00000  -0.00000   0.00000   3.14159
   D11        3.14159   0.00000   0.00000   0.00000   0.00000   3.14159
   D12        0.00000  -0.00000   0.00000  -0.00000  -0.00000   0.00000
   D13        0.00000  -0.00000   0.00000  -0.00000  -0.00000   0.00000
   D14        3.14159  -0.00000   0.00000  -0.00000   0.00000   3.14159
   D15        3.14159   0.00000   0.00000   0.00000   0.00000   3.14159
   D16       -0.00000   0.00000   0.00000   0.00000   0.00000   0.00000
   D17       -0.00000   0.00000   0.00000   0.00000   0.00000   0.00000
   D18        3.14159   0.00000   0.00000   0.00000   0.00000   3.14159
   D19        3.14159  -0.00000   0.00000  -0.00000   0.00000   3.14159
   D20        0.00000   0.00000   0.00000  -0.00000  -0.00000   0.00000
   D21       -0.00000   0.00000   0.00000   0.00000   0.00000   0.00000
   D22        3.14159  -0.00000   0.00000  -0.00000   0.00000   3.14159
   D23        3.14159   0.00000   0.00000   0.00000   0.00000   3.14159
   D24        0.00000  -0.00000   0.00000  -0.00000  -0.00000   0.00000
         Item               Value     Threshold  Converged?
 Maximum Force            0.045735     0.000450     NO 
 RMS     Force            0.013663     0.000300     NO 
 Maximum Displacement     0.074669     0.001800     NO 
 RMS     Displacement     0.032756     0.001200     NO 
 Predicted change in Energy=-9.948747D-03
 Lowest energy point so far.  Saving SCF results.
 GradGradGradGradGradGradGradGradGradGradGradGradGradGradGradGradGradGrad

 Leave Link  103 at Thu Jan 30 13:04:42 2025, MaxMem=   104857600 cpu:               0.0 elap:               0.0
 (Enter /sw/cluster/pub/apps//g16/l202.exe)
                          Input orientation:                          
 ---------------------------------------------------------------------
 Center     Atomic      Atomic             Coordinates (Angstroms)
 Number     Number       Type             X           Y           Z
 ---------------------------------------------------------------------
      1          6           0        1.209174    0.658577   -0.000000
      2          6           0        1.246440   -0.719677    0.000000
      3          6           0        0.034284   -1.376557    0.000000
      4          6           0       -1.209174   -0.658577   -0.000000
      5          6           0       -1.246440    0.719677    0.000000
      6          6           0       -0.034284    1.376557    0.000000
      7          1           0        2.186197   -1.262090   -0.000000
      8          1           0       -2.186197    1.262090   -0.000000
      9          9           0       -0.004143   -2.676331   -0.000000
     10          9           0       -2.315662   -1.341635   -0.000000
     11          9           0        0.004143    2.676331   -0.000000
     12          9           0        2.315662    1.341635   -0.000000
 ---------------------------------------------------------------------
                    Distance matrix (angstroms):
                    1          2          3          4          5
     1  C    0.000000
     2  C    1.378758   0.000000
     3  C    2.349923   1.378700   0.000000
     4  C    2.753780   2.456374   1.435856   0.000000
     5  C    2.456374   2.878574   2.456511   1.378758   0.000000
     6  C    1.435856   2.456511   2.753967   2.349923   1.378700
     7  H    2.154886   1.085060   2.154955   3.448589   3.963634
     8  H    3.448589   3.963634   3.448621   2.154886   1.085060
     9  F    3.548768   2.322166   1.300343   2.350198   3.616099
    10  F    4.052816   3.615993   2.350205   1.300340   2.322121
    11  F    2.350198   3.616099   4.053000   3.548768   2.322166
    12  F    1.300340   2.322121   3.548698   4.052816   3.615993
                    6          7          8          9         10
     6  C    0.000000
     7  H    3.448621   0.000000
     8  H    2.154955   5.048693   0.000000
     9  F    4.053000   2.607234   4.502501   0.000000
    10  F    3.548698   4.502562   2.606942   2.669182   0.000000
    11  F    1.300343   4.502501   2.607234   5.352669   4.639564
    12  F    2.350205   2.606942   4.502562   4.639564   5.352486
                   11         12
    11  F    0.000000
    12  F    2.669182   0.000000
 Symmetry turned off by external request.
 Stoichiometry    C6H2F4(1+,2)
 Framework group  C2H[SGH(C6H2F4)]
 Deg. of freedom    11
 Full point group                 C2H     NOp   4
 Rotational constants (GHZ):           2.2697708           1.0634704           0.7241702
 Leave Link  202 at Thu Jan 30 13:04:42 2025, MaxMem=   104857600 cpu:               0.0 elap:               0.0
 (Enter /sw/cluster/pub/apps//g16/l301.exe)
 Standard basis: 6-311++G(d,p) (5D, 7F)
 Ernie: Thresh=  0.10000D-02 Tol=  0.10000D-05 Strict=F.
   234 basis functions,   378 primitive gaussians,   244 cartesian basis functions
    37 alpha electrons       36 beta electrons
       nuclear repulsion energy       522.5581191178 Hartrees.
 IExCor= 1009 DFT=T Ex+Corr=PBE1PBE ExCW=0 ScaHFX=  0.250000
 ScaDFX=  0.750000  0.750000  1.000000  1.000000 ScalE2=  1.000000  1.000000
 IRadAn=      5 IRanWt=     -1 IRanGd=            0 ICorTp=0 IEmpDi=  4
 NAtoms=   12 NActive=   12 NUniq=   12 SFac= 1.00D+00 NAtFMM=   60 NAOKFM=F Big=F
 Integral buffers will be    131072 words long.
 Raffenetti 2 integral format.
 Two-electron integral symmetry is turned off.
 Leave Link  301 at Thu Jan 30 13:04:42 2025, MaxMem=   104857600 cpu:               0.0 elap:               0.0
 (Enter /sw/cluster/pub/apps//g16/l302.exe)
 NPDir=0 NMtPBC=     1 NCelOv=     1 NCel=       1 NClECP=     1 NCelD=      1
         NCelK=      1 NCelE2=     1 NClLst=     1 CellRange=     0.0.
 One-electron integrals computed using PRISM.
 NBasis=   234 RedAO= T EigKep=  2.39D-06  NBF=   234
 NBsUse=   234 1.00D-06 EigRej= -1.00D+00 NBFU=   234
 Precomputing XC quadrature grid using
 IXCGrd= 4 IRadAn=           5 IRanWt=          -1 IRanGd=           0 AccXCQ= 0.00D+00.
 Generated NRdTot=       0 NPtTot=           0 NUsed=           0 NTot=          32
 NSgBfM=   244   244   244   244   244 MxSgAt=    12 MxSgA2=    12.
 Leave Link  302 at Thu Jan 30 13:04:42 2025, MaxMem=   104857600 cpu:               0.1 elap:               0.1
 (Enter /sw/cluster/pub/apps//g16/l303.exe)
 DipDrv:  MaxL=1.
 Leave Link  303 at Thu Jan 30 13:04:42 2025, MaxMem=   104857600 cpu:               0.0 elap:               0.0
 (Enter /sw/cluster/pub/apps//g16/l401.exe)
 Initial guess from the checkpoint file:  "1-2-4-5-TtFB-CAT.chk"
 B after Tr=     0.000000   -0.000000   -0.000000
         Rot=    1.000000   -0.000000   -0.000000   -0.000007 Ang=  -0.00 deg.
 Guess basis will be translated and rotated to current coordinates.
 JPrj=2 DoOrth=T DoCkMO=T.
 Initial guess <Sx>= 0.0000 <Sy>= 0.0000 <Sz>= 0.5000 <S**2>= 0.7674 S= 0.5086
 Generating alternative initial guess.
 ExpMin= 3.60D-02 ExpMax= 1.14D+04 ExpMxC= 1.72D+03 IAcc=3 IRadAn=         5 AccDes= 0.00D+00
 Harris functional with IExCor= 1009 and IRadAn=       5 diagonalized for initial guess.
 HarFok:  IExCor= 1009 AccDes= 0.00D+00 IRadAn=         5 IDoV= 1 UseB2=F ITyADJ=14
 ICtDFT=  3500011 ScaDFX=  1.000000  1.000000  1.000000  1.000000
 FoFCou: FMM=F IPFlag=           0 FMFlag=      100000 FMFlg1=           0
         NFxFlg=           0 DoJE=T BraDBF=F KetDBF=T FulRan=T
         wScrn=  0.000000 ICntrl=       500 IOpCl=  0 I1Cent=   200000004 NGrid=           0
         NMat0=    1 NMatS0=      1 NMatT0=    0 NMatD0=    1 NMtDS0=    0 NMtDT0=    0
 Symmetry not used in FoFCou.
 Harris En= -628.473721408225    
 Leave Link  401 at Thu Jan 30 13:04:44 2025, MaxMem=   104857600 cpu:               1.4 elap:               1.4
 (Enter /sw/cluster/pub/apps//g16/l502.exe)
 Two-electron integral symmetry not used.
 UHF open shell SCF:
 Using DIIS extrapolation, IDIIS=  1040.
 NGot=   104857600 LenX=   104735324 LenY=   104675347
 Requested convergence on RMS density matrix=1.00D-08 within 128 cycles.
 Requested convergence on MAX density matrix=1.00D-06.
 Requested convergence on             energy=1.00D-06.
 No special actions if energy rises.
 Fock matrices will be formed incrementally for  20 cycles.

 Cycle   1  Pass 1  IDiag  1:
 FoFJK:  IHMeth= 1 ICntrl=       0 DoSepK=F KAlg= 0 I1Cent=           0 FoldK=F
 IRaf= 930000000 NMat=       1 IRICut=       1 DoRegI=T DoRafI=F ISym2E= 0 IDoP0=0 IntGTp=1.
 FoFCou: FMM=F IPFlag=           0 FMFlag=      100000 FMFlg1=           0
         NFxFlg=           0 DoJE=F BraDBF=F KetDBF=F FulRan=T
         wScrn=  0.000000 ICntrl=         0 IOpCl=  1 I1Cent=           0 NGrid=           0
         NMat0=    1 NMatS0=      1 NMatT0=    0 NMatD0=    1 NMtDS0=    0 NMtDT0=    0
 Symmetry not used in FoFCou.
 E= -628.369068256798    
 DIIS: error= 5.80D-03 at cycle   1 NSaved=   1.
 NSaved= 1 IEnMin= 1 EnMin= -628.369068256798     IErMin= 1 ErrMin= 5.80D-03
 ErrMax= 5.80D-03  0.00D+00 EMaxC= 1.00D-01 BMatC= 2.92D-02 BMatP= 2.92D-02
 IDIUse=3 WtCom= 9.42D-01 WtEn= 5.80D-02
 Coeff-Com:  0.100D+01
 Coeff-En:   0.100D+01
 Coeff:      0.100D+01
 Gap=     0.500 Goal=   None    Shift=    0.000
 Gap=     0.496 Goal=   None    Shift=    0.000
 GapD=    0.496 DampG=2.000 DampE=1.000 DampFc=2.0000 IDamp=-1.
 RMSDP=5.01D-03 MaxDP=1.70D-01              OVMax= 3.61D-02

 Cycle   2  Pass 1  IDiag  1:
 RMSU=  4.18D-03    CP:  9.35D-01
 E= -628.379032539558     Delta-E=       -0.009964282760 Rises=F Damp=F
 DIIS: error= 1.47D-03 at cycle   2 NSaved=   2.
 NSaved= 2 IEnMin= 2 EnMin= -628.379032539558     IErMin= 2 ErrMin= 1.47D-03
 ErrMax= 1.47D-03  0.00D+00 EMaxC= 1.00D-01 BMatC= 1.28D-03 BMatP= 2.92D-02
 IDIUse=3 WtCom= 9.85D-01 WtEn= 1.47D-02
 Coeff-Com:  0.257D-01 0.974D+00
 Coeff-En:   0.000D+00 0.100D+01
 Coeff:      0.253D-01 0.975D+00
 Gap=     0.241 Goal=   None    Shift=    0.000
 Gap=     0.109 Goal=   None    Shift=    0.000
 RMSDP=5.33D-04 MaxDP=2.13D-02 DE=-9.96D-03 OVMax= 7.32D-03

 Cycle   3  Pass 1  IDiag  1:
 RMSU=  3.08D-04    CP:  9.32D-01  1.10D+00
 E= -628.378977770705     Delta-E=        0.000054768853 Rises=F Damp=F
 DIIS: error= 1.83D-03 at cycle   3 NSaved=   3.
 NSaved= 3 IEnMin= 2 EnMin= -628.379032539558     IErMin= 2 ErrMin= 1.47D-03
 ErrMax= 1.83D-03  0.00D+00 EMaxC= 1.00D-01 BMatC= 1.64D-03 BMatP= 1.28D-03
 IDIUse=3 WtCom= 1.90D-01 WtEn= 8.10D-01
 Coeff-Com: -0.174D-01 0.544D+00 0.474D+00
 Coeff-En:   0.000D+00 0.551D+00 0.449D+00
 Coeff:     -0.330D-02 0.550D+00 0.453D+00
 Gap=     0.242 Goal=   None    Shift=    0.000
 Gap=     0.111 Goal=   None    Shift=    0.000
 RMSDP=2.42D-04 MaxDP=1.63D-02 DE= 5.48D-05 OVMax= 5.75D-03

 Cycle   4  Pass 1  IDiag  1:
 RMSU=  1.08D-04    CP:  9.28D-01  1.09D+00  5.64D-01
 E= -628.379277151652     Delta-E=       -0.000299380946 Rises=F Damp=F
 DIIS: error= 4.04D-04 at cycle   4 NSaved=   4.
 NSaved= 4 IEnMin= 4 EnMin= -628.379277151652     IErMin= 4 ErrMin= 4.04D-04
 ErrMax= 4.04D-04  0.00D+00 EMaxC= 1.00D-01 BMatC= 6.29D-05 BMatP= 1.28D-03
 IDIUse=3 WtCom= 9.96D-01 WtEn= 4.04D-03
 Coeff-Com: -0.806D-02 0.125D+00 0.199D+00 0.684D+00
 Coeff-En:   0.000D+00 0.000D+00 0.000D+00 0.100D+01
 Coeff:     -0.803D-02 0.124D+00 0.198D+00 0.686D+00
 Gap=     0.241 Goal=   None    Shift=    0.000
 Gap=     0.112 Goal=   None    Shift=    0.000
 RMSDP=7.92D-05 MaxDP=5.99D-03 DE=-2.99D-04 OVMax= 9.23D-04

 Cycle   5  Pass 1  IDiag  1:
 RMSU=  5.62D-05    CP:  9.29D-01  1.08D+00  6.31D-01  7.97D-01
 E= -628.379284736304     Delta-E=       -0.000007584652 Rises=F Damp=F
 DIIS: error= 1.68D-04 at cycle   5 NSaved=   5.
 NSaved= 5 IEnMin= 5 EnMin= -628.379284736304     IErMin= 5 ErrMin= 1.68D-04
 ErrMax= 1.68D-04  0.00D+00 EMaxC= 1.00D-01 BMatC= 1.17D-05 BMatP= 6.29D-05
 IDIUse=3 WtCom= 9.98D-01 WtEn= 1.68D-03
 Coeff-Com: -0.394D-02 0.390D-01 0.857D-01 0.383D+00 0.496D+00
 Coeff-En:   0.000D+00 0.000D+00 0.000D+00 0.117D+00 0.883D+00
 Coeff:     -0.393D-02 0.389D-01 0.855D-01 0.382D+00 0.497D+00
 Gap=     0.241 Goal=   None    Shift=    0.000
 Gap=     0.111 Goal=   None    Shift=    0.000
 RMSDP=1.48D-05 MaxDP=4.56D-04 DE=-7.58D-06 OVMax= 5.21D-04

 Cycle   6  Pass 1  IDiag  1:
 RMSU=  8.45D-06    CP:  9.29D-01  1.08D+00  6.49D-01  8.03D-01  9.19D-01
 E= -628.379287041919     Delta-E=       -0.000002305615 Rises=F Damp=F
 DIIS: error= 2.68D-05 at cycle   6 NSaved=   6.
 NSaved= 6 IEnMin= 6 EnMin= -628.379287041919     IErMin= 6 ErrMin= 2.68D-05
 ErrMax= 2.68D-05  0.00D+00 EMaxC= 1.00D-01 BMatC= 2.87D-07 BMatP= 1.17D-05
 IDIUse=1 WtCom= 1.00D+00 WtEn= 0.00D+00
 Coeff-Com: -0.127D-03-0.315D-02 0.606D-02 0.446D-01 0.155D+00 0.798D+00
 Coeff:     -0.127D-03-0.315D-02 0.606D-02 0.446D-01 0.155D+00 0.798D+00
 Gap=     0.241 Goal=   None    Shift=    0.000
 Gap=     0.111 Goal=   None    Shift=    0.000
 RMSDP=3.12D-06 MaxDP=1.12D-04 DE=-2.31D-06 OVMax= 8.03D-05

 Cycle   7  Pass 1  IDiag  1:
 RMSU=  1.75D-06    CP:  9.29D-01  1.08D+00  6.54D-01  8.04D-01  9.19D-01
                    CP:  8.79D-01
 E= -628.379287105412     Delta-E=       -0.000000063493 Rises=F Damp=F
 DIIS: error= 7.14D-06 at cycle   7 NSaved=   7.
 NSaved= 7 IEnMin= 7 EnMin= -628.379287105412     IErMin= 7 ErrMin= 7.14D-06
 ErrMax= 7.14D-06  0.00D+00 EMaxC= 1.00D-01 BMatC= 9.05D-09 BMatP= 2.87D-07
 IDIUse=1 WtCom= 1.00D+00 WtEn= 0.00D+00
 Coeff-Com:  0.177D-03-0.259D-02-0.384D-02-0.161D-01-0.120D-01 0.883D-01
 Coeff-Com:  0.946D+00
 Coeff:      0.177D-03-0.259D-02-0.384D-02-0.161D-01-0.120D-01 0.883D-01
 Coeff:      0.946D+00
 Gap=     0.241 Goal=   None    Shift=    0.000
 Gap=     0.111 Goal=   None    Shift=    0.000
 RMSDP=8.64D-07 MaxDP=4.04D-05 DE=-6.35D-08 OVMax= 4.64D-05

 Cycle   8  Pass 1  IDiag  1:
 RMSU=  5.48D-07    CP:  9.29D-01  1.08D+00  6.53D-01  8.05D-01  9.25D-01
                    CP:  8.86D-01  1.01D+00
 E= -628.379287110020     Delta-E=       -0.000000004608 Rises=F Damp=F
 DIIS: error= 2.45D-06 at cycle   8 NSaved=   8.
 NSaved= 8 IEnMin= 8 EnMin= -628.379287110020     IErMin= 8 ErrMin= 2.45D-06
 ErrMax= 2.45D-06  0.00D+00 EMaxC= 1.00D-01 BMatC= 1.58D-09 BMatP= 9.05D-09
 IDIUse=1 WtCom= 1.00D+00 WtEn= 0.00D+00
 Coeff-Com:  0.192D-04 0.317D-03-0.710D-03-0.710D-02-0.177D-01-0.930D-01
 Coeff-Com:  0.879D-01 0.103D+01
 Coeff:      0.192D-04 0.317D-03-0.710D-03-0.710D-02-0.177D-01-0.930D-01
 Coeff:      0.879D-01 0.103D+01
 Gap=     0.241 Goal=   None    Shift=    0.000
 Gap=     0.111 Goal=   None    Shift=    0.000
 RMSDP=5.02D-07 MaxDP=2.98D-05 DE=-4.61D-09 OVMax= 1.52D-05

 Cycle   9  Pass 1  IDiag  1:
 RMSU=  2.12D-07    CP:  9.29D-01  1.08D+00  6.54D-01  8.03D-01  9.27D-01
                    CP:  8.91D-01  1.10D+00  1.29D+00
 E= -628.379287110921     Delta-E=       -0.000000000901 Rises=F Damp=F
 DIIS: error= 7.81D-07 at cycle   9 NSaved=   9.
 NSaved= 9 IEnMin= 9 EnMin= -628.379287110921     IErMin= 9 ErrMin= 7.81D-07
 ErrMax= 7.81D-07  0.00D+00 EMaxC= 1.00D-01 BMatC= 2.18D-10 BMatP= 1.58D-09
 IDIUse=1 WtCom= 1.00D+00 WtEn= 0.00D+00
 Coeff-Com: -0.195D-04 0.526D-03 0.448D-03 0.725D-03-0.281D-02-0.390D-01
 Coeff-Com: -0.108D+00 0.301D+00 0.847D+00
 Coeff:     -0.195D-04 0.526D-03 0.448D-03 0.725D-03-0.281D-02-0.390D-01
 Coeff:     -0.108D+00 0.301D+00 0.847D+00
 Gap=     0.241 Goal=   None    Shift=    0.000
 Gap=     0.111 Goal=   None    Shift=    0.000
 RMSDP=1.68D-07 MaxDP=1.11D-05 DE=-9.01D-10 OVMax= 5.49D-06

 Cycle  10  Pass 1  IDiag  1:
 RMSU=  7.64D-08    CP:  9.29D-01  1.08D+00  6.54D-01  8.03D-01  9.26D-01
                    CP:  8.88D-01  1.11D+00  1.44D+00  1.29D+00
 E= -628.379287111028     Delta-E=       -0.000000000107 Rises=F Damp=F
 DIIS: error= 2.18D-07 at cycle  10 NSaved=  10.
 NSaved=10 IEnMin=10 EnMin= -628.379287111028     IErMin=10 ErrMin= 2.18D-07
 ErrMax= 2.18D-07  0.00D+00 EMaxC= 1.00D-01 BMatC= 1.88D-11 BMatP= 2.18D-10
 IDIUse=1 WtCom= 1.00D+00 WtEn= 0.00D+00
 Coeff-Com: -0.495D-05 0.742D-04 0.137D-03 0.523D-03 0.553D-03-0.144D-02
 Coeff-Com: -0.239D-01-0.134D-01 0.154D+00 0.883D+00
 Coeff:     -0.495D-05 0.742D-04 0.137D-03 0.523D-03 0.553D-03-0.144D-02
 Coeff:     -0.239D-01-0.134D-01 0.154D+00 0.883D+00
 Gap=     0.241 Goal=   None    Shift=    0.000
 Gap=     0.111 Goal=   None    Shift=    0.000
 RMSDP=5.19D-08 MaxDP=2.42D-06 DE=-1.07D-10 OVMax= 4.27D-06

 Cycle  11  Pass 1  IDiag  1:
 RMSU=  2.83D-08    CP:  9.29D-01  1.08D+00  6.54D-01  8.03D-01  9.26D-01
                    CP:  8.88D-01  1.12D+00  1.47D+00  1.45D+00  1.15D+00
 E= -628.379287111038     Delta-E=       -0.000000000010 Rises=F Damp=F
 DIIS: error= 2.09D-07 at cycle  11 NSaved=  11.
 NSaved=11 IEnMin=11 EnMin= -628.379287111038     IErMin=11 ErrMin= 2.09D-07
 ErrMax= 2.09D-07  0.00D+00 EMaxC= 1.00D-01 BMatC= 1.91D-11 BMatP= 1.88D-11
 IDIUse=1 WtCom= 1.00D+00 WtEn= 0.00D+00
 Coeff-Com:  0.158D-05-0.852D-04-0.228D-04 0.159D-03 0.104D-02 0.882D-02
 Coeff-Com:  0.113D-01-0.853D-01-0.111D+00 0.615D+00 0.561D+00
 Coeff:      0.158D-05-0.852D-04-0.228D-04 0.159D-03 0.104D-02 0.882D-02
 Coeff:      0.113D-01-0.853D-01-0.111D+00 0.615D+00 0.561D+00
 Gap=     0.241 Goal=   None    Shift=    0.000
 Gap=     0.111 Goal=   None    Shift=    0.000
 RMSDP=2.80D-08 MaxDP=1.34D-06 DE=-9.55D-12 OVMax= 1.14D-06

 Cycle  12  Pass 1  IDiag  1:
 RMSU=  1.32D-08    CP:  9.29D-01  1.08D+00  6.54D-01  8.03D-01  9.26D-01
                    CP:  8.88D-01  1.12D+00  1.49D+00  1.52D+00  1.34D+00
                    CP:  7.89D-01
 E= -628.379287111042     Delta-E=       -0.000000000005 Rises=F Damp=F
 DIIS: error= 5.30D-08 at cycle  12 NSaved=  12.
 NSaved=12 IEnMin=12 EnMin= -628.379287111042     IErMin=12 ErrMin= 5.30D-08
 ErrMax= 5.30D-08  0.00D+00 EMaxC= 1.00D-01 BMatC= 5.33D-13 BMatP= 1.88D-11
 IDIUse=1 WtCom= 1.00D+00 WtEn= 0.00D+00
 Coeff-Com:  0.904D-06-0.126D-04-0.286D-04-0.713D-04-0.144D-03 0.134D-03
 Coeff-Com:  0.336D-02 0.558D-02-0.245D-01-0.145D+00-0.881D-01 0.125D+01
 Coeff:      0.904D-06-0.126D-04-0.286D-04-0.713D-04-0.144D-03 0.134D-03
 Coeff:      0.336D-02 0.558D-02-0.245D-01-0.145D+00-0.881D-01 0.125D+01
 Gap=     0.241 Goal=   None    Shift=    0.000
 Gap=     0.111 Goal=   None    Shift=    0.000
 RMSDP=1.22D-08 MaxDP=6.15D-07 DE=-4.55D-12 OVMax= 2.02D-06

 Cycle  13  Pass 1  IDiag  1:
 RMSU=  3.99D-09    CP:  9.29D-01  1.08D+00  6.54D-01  8.03D-01  9.26D-01
                    CP:  8.88D-01  1.12D+00  1.50D+00  1.55D+00  1.41D+00
                    CP:  8.75D-01  1.35D+00
 E= -628.379287111042     Delta-E=        0.000000000000 Rises=F Damp=F
 DIIS: error= 3.22D-08 at cycle  13 NSaved=  13.
 NSaved=13 IEnMin=12 EnMin= -628.379287111042     IErMin=13 ErrMin= 3.22D-08
 ErrMax= 3.22D-08  0.00D+00 EMaxC= 1.00D-01 BMatC= 1.11D-13 BMatP= 5.33D-13
 IDIUse=1 WtCom= 1.00D+00 WtEn= 0.00D+00
 Coeff-Com: -0.395D-06 0.115D-04 0.101D-04 0.331D-05-0.353D-04-0.788D-03
 Coeff-Com: -0.192D-02 0.604D-02 0.147D-01-0.446D-02-0.727D-01-0.250D+00
 Coeff-Com:  0.131D+01
 Coeff:     -0.395D-06 0.115D-04 0.101D-04 0.331D-05-0.353D-04-0.788D-03
 Coeff:     -0.192D-02 0.604D-02 0.147D-01-0.446D-02-0.727D-01-0.250D+00
 Coeff:      0.131D+01
 Gap=     0.241 Goal=   None    Shift=    0.000
 Gap=     0.111 Goal=   None    Shift=    0.000
 RMSDP=4.15D-09 MaxDP=8.47D-08 DE= 0.00D+00 OVMax= 1.16D-06

 SCF Done:  E(UPBE1PBE) =  -628.379287111     A.U. after   13 cycles
            NFock= 13  Conv=0.42D-08     -V/T= 2.0027
 <Sx>= 0.0000 <Sy>= 0.0000 <Sz>= 0.5000 <S**2>= 0.7676 S= 0.5087
 <L.S>=  0.00000000000    
 KE= 6.266800114834D+02 PE=-2.514386788657D+03 EE= 7.367693709448D+02
 Annihilation of the first spin contaminant:
 S**2 before annihilation     0.7676,   after     0.7502
 Leave Link  502 at Thu Jan 30 13:05:44 2025, MaxMem=   104857600 cpu:              60.3 elap:              60.4
 (Enter /sw/cluster/pub/apps//g16/l701.exe)
 ... and contract with generalized density number  0.
 Compute integral first derivatives.
 Leave Link  701 at Thu Jan 30 13:05:44 2025, MaxMem=   104857600 cpu:               0.0 elap:               0.1
 (Enter /sw/cluster/pub/apps//g16/l702.exe)
 L702 exits ... SP integral derivatives will be done elsewhere.
 Leave Link  702 at Thu Jan 30 13:05:44 2025, MaxMem=   104857600 cpu:               0.0 elap:               0.0
 (Enter /sw/cluster/pub/apps//g16/l703.exe)
 Integral derivatives from FoFJK, PRISM(SPDF).
 Compute integral first derivatives, UseDBF=F ICtDFT=           0.
 Calling FoFJK, ICntrl=      2127 FMM=F ISym2X=0 I1Cent= 0 IOpClX= 1 NMat=1 NMatS=1 NMatT=0.
 FoFJK:  IHMeth= 1 ICntrl=    2127 DoSepK=F KAlg= 0 I1Cent=           0 FoldK=F
 IRaf=         0 NMat=       1 IRICut=       1 DoRegI=T DoRafI=F ISym2E= 0 IDoP0=0 IntGTp=1.
 FoFCou: FMM=F IPFlag=           0 FMFlag=      100000 FMFlg1=         800
         NFxFlg=           0 DoJE=F BraDBF=F KetDBF=F FulRan=T
[...]
 Leave Link  716 at Thu Jan 30 13:15:59 2025, MaxMem=   104857600 cpu:               0.0 elap:               0.0
 (Enter /sw/cluster/pub/apps//g16/l103.exe)

 GradGradGradGradGradGradGradGradGradGradGradGradGradGradGradGradGradGrad
 Berny optimization.
 Red2BG is reusing G-inverse.
 Internal  Forces:  Max     0.000182295 RMS     0.000072760
 Search for a local minimum.
 Step number   1 out of a maximum of    2
 All quantities printed in internal units (Hartrees-Bohrs-Radians)
 Second derivative matrix not updated -- analytic derivatives used.
 ITU=  0
     Eigenvalues ---    0.01200   0.01279   0.01732   0.01764   0.02119
     Eigenvalues ---    0.02540   0.03113   0.03178   0.03433   0.09440
     Eigenvalues ---    0.10113   0.14999   0.17186   0.18728   0.18947
     Eigenvalues ---    0.21363   0.22249   0.23104   0.31571   0.34689
     Eigenvalues ---    0.36217   0.36656   0.36729   0.39535   0.42400
     Eigenvalues ---    0.50252   0.54568   0.55467   0.55946   0.58512
 Angle between quadratic step and forces=  31.05 degrees.
 Linear search not attempted -- first point.
 Iteration  1 RMS(Cart)=  0.00039481 RMS(Int)=  0.00000012
 Iteration  2 RMS(Cart)=  0.00000015 RMS(Int)=  0.00000000
 ITry= 1 IFail=0 DXMaxC= 8.39D-04 DCOld= 1.00D+10 DXMaxT= 3.00D-01 DXLimC= 3.00D+00 Rises=F
 Variable       Old X    -DE/DX   Delta X   Delta X   Delta X     New X
                                 (Linear)    (Quad)   (Total)
    R1        2.60647  -0.00012   0.00000  -0.00026  -0.00026   2.60620
    R2        2.73492   0.00018   0.00000   0.00051   0.00051   2.73543
    R3        2.43837   0.00015   0.00000   0.00030   0.00030   2.43867
    R4        2.60645  -0.00011   0.00000  -0.00024  -0.00024   2.60621
    R5        2.04947   0.00002   0.00000   0.00005   0.00005   2.04952
    R6        2.73492   0.00018   0.00000   0.00051   0.00051   2.73543
    R7        2.43837   0.00015   0.00000   0.00030   0.00030   2.43867
    R8        2.60647  -0.00012   0.00000  -0.00026  -0.00026   2.60620
    R9        2.43837   0.00015   0.00000   0.00030   0.00030   2.43867
   R10        2.60645  -0.00011   0.00000  -0.00024  -0.00024   2.60621
   R11        2.04947   0.00002   0.00000   0.00005   0.00005   2.04952
   R12        2.43837   0.00015   0.00000   0.00030   0.00030   2.43867
    A1        2.12184   0.00005   0.00000   0.00032   0.00032   2.12216
    A2        2.11982   0.00003   0.00000   0.00025   0.00025   2.12007
    A3        2.04153  -0.00008   0.00000  -0.00058  -0.00058   2.04095
    A4        2.03952  -0.00010   0.00000  -0.00067  -0.00067   2.03885
    A5        2.12182   0.00005   0.00000   0.00036   0.00036   2.12218
    A6        2.12185   0.00005   0.00000   0.00031   0.00031   2.12216
    A7        2.12183   0.00005   0.00000   0.00035   0.00035   2.12218
    A8        2.11985   0.00003   0.00000   0.00022   0.00022   2.12007
    A9        2.04151  -0.00008   0.00000  -0.00057  -0.00057   2.04094
   A10        2.12184   0.00005   0.00000   0.00032   0.00032   2.12216
   A11        2.04153  -0.00008   0.00000  -0.00058  -0.00058   2.04095
   A12        2.11982   0.00003   0.00000   0.00025   0.00025   2.12007
   A13        2.03952  -0.00010   0.00000  -0.00067  -0.00067   2.03885
   A14        2.12182   0.00005   0.00000   0.00036   0.00036   2.12218
   A15        2.12185   0.00005   0.00000   0.00031   0.00031   2.12216
   A16        2.12183   0.00005   0.00000   0.00035   0.00035   2.12218
   A17        2.04151  -0.00008   0.00000  -0.00057  -0.00057   2.04094
   A18        2.11985   0.00003   0.00000   0.00022   0.00022   2.12007
    D1        0.00000  -0.00000   0.00000  -0.00000  -0.00000   0.00000
    D2        3.14159  -0.00000   0.00000  -0.00000   0.00000   3.14159
    D3        3.14159   0.00000   0.00000   0.00000   0.00000   3.14159
    D4       -0.00000   0.00000   0.00000   0.00000   0.00000   0.00000
    D5       -0.00000   0.00000   0.00000   0.00000   0.00000   0.00000
    D6        3.14159  -0.00000   0.00000  -0.00000   0.00000   3.14159
    D7        3.14159   0.00000   0.00000   0.00000   0.00000   3.14159
    D8        0.00000  -0.00000   0.00000  -0.00000  -0.00000   0.00000
    D9        0.00000  -0.00000   0.00000  -0.00000  -0.00000   0.00000
   D10        3.14159   0.00000   0.00000   0.00000   0.00000   3.14159
   D11       -3.14159  -0.00000   0.00000  -0.00000  -0.00000   3.14159
   D12       -0.00000   0.00000   0.00000   0.00000   0.00000   0.00000
   D13       -0.00000   0.00000   0.00000   0.00000   0.00000   0.00000
   D14        3.14159   0.00000   0.00000   0.00000   0.00000   3.14159
   D15        3.14159  -0.00000   0.00000  -0.00000   0.00000   3.14159
   D16        0.00000  -0.00000   0.00000  -0.00000  -0.00000   0.00000
   D17        0.00000  -0.00000   0.00000  -0.00000  -0.00000   0.00000
   D18        3.14159  -0.00000   0.00000  -0.00000   0.00000   3.14159
   D19        3.14159   0.00000   0.00000   0.00000   0.00000   3.14159
   D20       -0.00000   0.00000   0.00000   0.00000   0.00000   0.00000
   D21        0.00000  -0.00000   0.00000  -0.00000  -0.00000   0.00000
   D22        3.14159   0.00000   0.00000   0.00000   0.00000   3.14159
   D23        3.14159  -0.00000   0.00000  -0.00000   0.00000   3.14159
   D24       -0.00000   0.00000   0.00000   0.00000   0.00000   0.00000
         Item               Value     Threshold  Converged?
 Maximum Force            0.000182     0.000450     YES
 RMS     Force            0.000073     0.000300     YES
 Maximum Displacement     0.000839     0.001800     YES
 RMS     Displacement     0.000395     0.001200     YES
 Predicted change in Energy=-4.852346D-07
 Optimization completed.
    -- Stationary point found.
                           ----------------------------
                           !   Optimized Parameters   !
                           ! (Angstroms and Degrees)  !
 --------------------------                            --------------------------
 ! Name  Definition              Value          Derivative Info.                !
 --------------------------------------------------------------------------------
 ! R1    R(1,2)                  1.3793         -DE/DX =   -0.0001              !
 ! R2    R(1,6)                  1.4473         -DE/DX =    0.0002              !
 ! R3    R(1,12)                 1.2903         -DE/DX =    0.0002              !
 ! R4    R(2,3)                  1.3793         -DE/DX =   -0.0001              !
 ! R5    R(2,7)                  1.0845         -DE/DX =    0.0                 !
 ! R6    R(3,4)                  1.4473         -DE/DX =    0.0002              !
 ! R7    R(3,9)                  1.2903         -DE/DX =    0.0002              !
 ! R8    R(4,5)                  1.3793         -DE/DX =   -0.0001              !
 ! R9    R(4,10)                 1.2903         -DE/DX =    0.0002              !
 ! R10   R(5,6)                  1.3793         -DE/DX =   -0.0001              !
 ! R11   R(5,8)                  1.0845         -DE/DX =    0.0                 !
 ! R12   R(6,11)                 1.2903         -DE/DX =    0.0002              !
 ! A1    A(2,1,6)              121.5725         -DE/DX =    0.0                 !
 ! A2    A(2,1,12)             121.4565         -DE/DX =    0.0                 !
 ! A3    A(6,1,12)             116.971          -DE/DX =   -0.0001              !
 ! A4    A(1,2,3)              116.8558         -DE/DX =   -0.0001              !
 ! A5    A(1,2,7)              121.5713         -DE/DX =    0.0001              !
 ! A6    A(3,2,7)              121.5729         -DE/DX =    0.0                 !
 ! A7    A(2,3,4)              121.5717         -DE/DX =    0.0001              !
 ! A8    A(2,3,9)              121.4583         -DE/DX =    0.0                 !
 ! A9    A(4,3,9)              116.97           -DE/DX =   -0.0001              !
 ! A10   A(3,4,5)              121.5725         -DE/DX =    0.0                 !
 ! A11   A(3,4,10)             116.971          -DE/DX =   -0.0001              !
 ! A12   A(5,4,10)             121.4565         -DE/DX =    0.0                 !
 ! A13   A(4,5,6)              116.8558         -DE/DX =   -0.0001              !
 ! A14   A(4,5,8)              121.5713         -DE/DX =    0.0001              !
 ! A15   A(6,5,8)              121.5729         -DE/DX =    0.0                 !
 ! A16   A(1,6,5)              121.5717         -DE/DX =    0.0001              !
 ! A17   A(1,6,11)             116.97           -DE/DX =   -0.0001              !
 ! A18   A(5,6,11)             121.4583         -DE/DX =    0.0                 !
 ! D1    D(6,1,2,3)              0.0            -DE/DX =    0.0                 !
 ! D2    D(6,1,2,7)            180.0            -DE/DX =    0.0                 !
 ! D3    D(12,1,2,3)           180.0            -DE/DX =    0.0                 !
 ! D4    D(12,1,2,7)             0.0            -DE/DX =    0.0                 !
 ! D5    D(2,1,6,5)              0.0            -DE/DX =    0.0                 !
 ! D6    D(2,1,6,11)           180.0            -DE/DX =    0.0                 !
 ! D7    D(12,1,6,5)           180.0            -DE/DX =    0.0                 !
 ! D8    D(12,1,6,11)            0.0            -DE/DX =    0.0                 !
 ! D9    D(1,2,3,4)              0.0            -DE/DX =    0.0                 !
 ! D10   D(1,2,3,9)            180.0            -DE/DX =    0.0                 !
 ! D11   D(7,2,3,4)            180.0            -DE/DX =    0.0                 !
 ! D12   D(7,2,3,9)              0.0            -DE/DX =    0.0                 !
 ! D13   D(2,3,4,5)              0.0            -DE/DX =    0.0                 !
 ! D14   D(2,3,4,10)           180.0            -DE/DX =    0.0                 !
 ! D15   D(9,3,4,5)            180.0            -DE/DX =    0.0                 !
 ! D16   D(9,3,4,10)             0.0            -DE/DX =    0.0                 !
 ! D17   D(3,4,5,6)              0.0            -DE/DX =    0.0                 !
 ! D18   D(3,4,5,8)            180.0            -DE/DX =    0.0                 !
 ! D19   D(10,4,5,6)           180.0            -DE/DX =    0.0                 !
 ! D20   D(10,4,5,8)             0.0            -DE/DX =    0.0                 !
 ! D21   D(4,5,6,1)              0.0            -DE/DX =    0.0                 !
 ! D22   D(4,5,6,11)           180.0            -DE/DX =    0.0                 !
 ! D23   D(8,5,6,1)            180.0            -DE/DX =    0.0                 !
 ! D24   D(8,5,6,11)             0.0            -DE/DX =    0.0                 !
 --------------------------------------------------------------------------------
 GradGradGradGradGradGradGradGradGradGradGradGradGradGradGradGradGradGrad

 Leave Link  103 at Thu Jan 30 13:15:59 2025, MaxMem=   104857600 cpu:               0.0 elap:               0.0
 (Enter /sw/cluster/pub/apps//g16/l9999.exe)
 Dipole is zero, so no output in dipole orientation.

 ----------------------------------------------------------------------

 Electric dipole moment (input orientation):
 (Debye = 10**-18 statcoulomb cm , SI units = C m)
                  (au)            (Debye)         (10**-30 SI)
   Tot        0.000000D+00      0.000000D+00      0.000000D+00
   x          0.000000D+00      0.000000D+00      0.000000D+00
   y          0.000000D+00      0.000000D+00      0.000000D+00
   z          0.000000D+00      0.000000D+00      0.000000D+00

 Dipole polarizability, Alpha (input orientation).
 (esu units = cm**3 , SI units = C**2 m**2 J**-1)
 Alpha(0;0):
               (au)            (10**-24 esu)      (10**-40 SI)
   iso        0.651862D+02      0.965960D+01      0.107478D+02
   aniso      0.526683D+02      0.780464D+01      0.868383D+01
   xx         0.763420D+02      0.113127D+02      0.125871D+02
   yx         0.918011D+01      0.136035D+01      0.151360D+01
   yy         0.869403D+02      0.128832D+02      0.143345D+02
   zx         0.000000D+00      0.000000D+00      0.000000D+00
   zy         0.000000D+00      0.000000D+00      0.000000D+00
   zz         0.322763D+02      0.478285D+01      0.532164D+01

 ----------------------------------------------------------------------
 1\1\GINC-N11\Freq\UPBE1PBE\6-311++G(d,p)\C6H2F4(1+,2)\UNKNOWN\30-Jan-2
 025\0\\#P Geom=AllCheck Guess=TCheck SCRF=Check GenChk UPBE1PBE/6-311+
 +G(d,p) Freq\\1 2 4 5 TtFB SP\\1,2\C,1.2142335661,0.6558720686,-0.0000
 000035\C,1.252080895,-0.7228911099,0.0000000001\C,0.0391266629,-1.3795
 039587,0.0000000094\C,-1.2142335661,-0.6558720686,-0.000000003\C,-1.25
 2080895,0.7228911099,0.0000000011\C,-0.0391266629,1.3795039587,0.00000
 00102\H,2.1913247533,-1.2651393031,-0.0000000057\H,-2.1913247533,1.265
 1393031,-0.0000000027\F,-0.0290810312,-2.6680292947,0.0000000011\F,-2.
 2960397661,-1.359181366,-0.0000000039\F,0.0290810312,2.6680292947,-0.0
 000000039\F,2.2960397661,1.359181366,-0.0000000001\\Version=ES64L-G16R
 evA.03\HF=-628.3801782\S2=0.767672\S2-1=0.\S2A=0.750173\RMSD=3.423e-09
 \RMSF=1.238e-04\ZeroPoint=0.0682602\Thermal=0.0760598\Dipole=0.,0.,0.\
 DipoleDeriv=1.2584908,0.8280209,0.,0.6561955,0.9836241,0.,0.,0.,0.2553
 499,-0.3010963,-0.3569646,0.,-0.3570137,-0.7133437,0.,0.,0.,-0.1070734
 ,0.4095787,0.1661357,0.,0.3379923,1.8323944,0.,0.,0.,0.2553037,1.25849
 08,0.8280209,0.,0.6561955,0.9836241,0.,0.,0.,0.2553499,-0.3010963,-0.3
 569646,0.,-0.3570136,-0.7133437,0.,0.,0.,-0.1070734,0.4095787,0.166135
 7,0.,0.3379922,1.8323944,0.,0.,0.,0.2553037,0.2019852,-0.0463352,0.,-0
 .0463242,0.1485007,0.,0.,0.,0.1999874,0.2019852,-0.0463352,0.,-0.04632
 42,0.1485006,0.,0.,0.,0.1999874,-0.1298421,-0.0310105,0.,-0.0926396,-1
 .2802046,0.,0.,0.,-0.0517896,-0.9391162,-0.5598464,0.,-0.4982104,-0.47
 09708,0.,0.,0.,-0.0517781,-0.1298421,-0.0310105,0.,-0.0926396,-1.28020
 46,0.,0.,0.,-0.0517896,-0.9391162,-0.5598464,0.,-0.4982104,-0.4709708,
 0.,0.,0.,-0.0517781\Polar=76.3420421,9.180108,86.940252,0.,0.,32.27630
 25\Quadrupole=3.6758289,0.2605543,-3.9363832,-2.9575313,0.,0.\PG=C02 [
 X(C6H2F4)]\NImag=0\\0.69367442,0.06296661,0.73814952,0.,0.,0.13245559,
 -0.12127779,0.08321680,0.,0.75550989,0.01110451,-0.33328802,0.,-0.0556
 9156,0.69117747,0.,0.,-0.04616527,0.,0.,0.09362108,0.03185474,-0.09434
 301,0.,-0.32114097,-0.03219041,0.,0.67250043,-0.04419485,-0.04814673,0
 .,-0.10428710,-0.13344678,0.,0.05075278,0.75935600,0.,0.,-0.01585166,0
 .,0.,-0.04616522,0.,0.,0.13246141,-0.02781721,0.01346115,0.,-0.0301916
 2,-0.00020114,0.,-0.21927079,0.09615347,0.,0.69367442,0.01346114,-0.00
 445584,0.,-0.01080739,0.01165239,0.,0.06677558,-0.12521330,0.,0.062966
 61,0.73814953,0.,0.,0.00837959,0.,0.,-0.00320555,0.,0.,-0.05778768,0.,
 0.,0.13245559,-0.03019162,-0.01080740,0.,0.00395681,0.00640558,0.,0.00
 596219,0.02066141,0.,-0.12127779,0.08321680,0.,0.75550989,-0.00020114,
 0.01165239,0.,0.00640558,0.01134351,0.,0.01006834,-0.02449293,0.,0.011
 10451,-0.33328802,0.,-0.05569156,0.69117747,0.,0.,-0.00320555,0.,0.,0.
 01218793,0.,0.,-0.00321118,0.,0.,-0.04616527,0.,0.,0.09362108,-0.21927
 079,0.06677558,0.,0.00596219,0.01006834,0.,-0.02196085,0.01683923,0.,0
 .03185474,-0.09434300,0.,-0.32114097,-0.03219041,0.,0.67250043,0.09615
 347,-0.12521329,0.,0.02066141,-0.02449293,0.,0.01683923,-0.01032025,0.
 ,-0.04419485,-0.04814673,0.,-0.10428710,-0.13344678,0.,0.05075278,0.75
 935600,0.,0.,-0.05778768,0.,0.,-0.00321118,0.,0.,0.00838392,0.,0.,-0.0
 1585166,0.,0.,-0.04616522,0.,0.,0.13246141,0.00783591,-0.00120934,0.,-
 0.27925623,0.12811161,0.,-0.01673071,0.01357541,0.,-0.00137322,-0.0037
 8719,0.,0.00060925,0.00027220,0.,-0.00044767,-0.00123948,0.,0.28772370
 ,0.02775976,-0.00959103,0.,0.12811158,-0.13131566,0.,-0.01539196,0.014
 97510,0.,-0.00177266,-0.00335017,0.,0.00027221,0.00092394,0.,-0.003253
 27,-0.00427428,0.,-0.13688978,0.12964575,0.,0.,0.00355470,0.,0.,-0.031
 49583,0.,0.,0.00355378,0.,0.,0.00625926,0.,0.,-0.00239693,0.,0.,0.0062
 5851,0.,0.,0.02303996,-0.00137322,-0.00378719,0.,0.00060925,0.00027220
 ,0.,-0.00044767,-0.00123948,0.,0.00783591,-0.00120933,0.,-0.27925623,0
 .12811161,0.,-0.01673071,0.01357541,0.,-0.00007195,0.00008555,0.,0.287
 72370,-0.00177266,-0.00335017,0.,0.00027221,0.00092394,0.,-0.00325327,
 -0.00427428,0.,0.02775976,-0.00959103,0.,0.12811158,-0.13131566,0.,-0.
 01539196,0.01497510,0.,0.00008555,0.00002687,0.,-0.13688978,0.12964575
 ,0.,0.,0.00625926,0.,0.,-0.00239693,0.,0.,0.00625851,0.,0.,0.00355470,
 0.,0.,-0.03149583,0.,0.,0.00355378,0.,0.,0.00033634,0.,0.,0.02303996,-
 0.00775780,0.00619677,0.,0.00521237,-0.05145908,0.,-0.07934170,-0.0187
 5925,0.,0.00333606,0.03498776,0.,-0.00554712,0.00305576,0.,-0.00121845
 ,-0.00214166,0.,0.00245931,0.00180760,0.,0.00064815,0.00149423,0.,0.07
 567915,0.00148122,0.02036473,0.,-0.02151860,-0.06309796,0.,-0.00470491
 ,-0.43591217,0.,-0.00241391,-0.06259365,0.,0.00983624,0.01007051,0.,-0
 .00930579,0.00392052,0.,0.00125451,0.00009405,0.,-0.00087687,-0.000865
 84,0.,0.02442402,0.52639969,0.,0.,0.00880672,0.,0.,0.01015925,0.,0.,-0
 .04221272,0.,0.,0.00766266,0.,0.,0.00325583,0.,0.,-0.00189891,0.,0.,-0
 .00446793,0.,0.,-0.00008662,0.,0.,0.02195964,0.00759379,-0.00421831,0.
 ,0.00058197,0.01337463,0.,-0.06021327,-0.03909826,0.,-0.33660648,-0.15
 323944,0.,-0.01441874,-0.03285044,0.,0.01000704,0.01173831,0.,-0.00075
 452,-0.00168670,0.,-0.00064202,-0.00053655,0.,0.00672035,0.00664455,0.
 ,0.39256783,0.00294654,-0.00489107,0.,0.00659552,0.00393949,0.,-0.0016
 9960,0.00095813,0.,-0.16729069,-0.17863685,0.,-0.06279469,-0.04346596,
 0.,0.01645302,0.00259670,0.,0.00068435,0.00053708,0.,0.00001903,0.0031
 9419,0.,0.00350923,0.01258513,0.,0.20737483,0.20950364,0.,0.,-0.001898
 56,0.,0.,0.00325611,0.,0.,0.00766365,0.,0.,-0.04220980,0.,0.,0.0101597
 6,0.,0.,0.00880611,0.,0.,-0.00008667,0.,0.,-0.00446858,0.,0.,-0.002109
 93,0.,0.,0.02195582,0.00333606,0.03498776,0.,-0.00554712,0.00305576,0.
 ,-0.00121845,-0.00214166,0.,-0.00775780,0.00619677,0.,0.00521237,-0.05
 145908,0.,-0.07934170,-0.01875925,0.,0.00064815,0.00149423,0.,0.002459
 31,0.00180760,0.,0.00055221,0.00049996,0.,-0.00074253,-0.00361534,0.,0
 .07567915,-0.00241391,-0.06259365,0.,0.00983624,0.01007051,0.,-0.00930
 579,0.00392052,0.,0.00148122,0.02036473,0.,-0.02151860,-0.06309795,0.,
 -0.00470491,-0.43591217,0.,-0.00087687,-0.00086584,0.,0.00125451,0.000
 09405,0.,0.00049996,-0.00506337,0.,-0.00532041,-0.00590164,0.,0.024424
 02,0.52639969,0.,0.,0.00766266,0.,0.,0.00325583,0.,0.,-0.00189891,0.,0
 .,0.00880672,0.,0.,0.01015925,0.,0.,-0.04221271,0.,0.,-0.00008662,0.,0
 .,-0.00446793,0.,0.,0.00025266,0.,0.,-0.00132065,0.,0.,0.02195964,-0.3
 3660648,-0.15323944,0.,-0.01441874,-0.03285044,0.,0.01000705,0.0117383
 1,0.,0.00759379,-0.00421831,0.,0.00058197,0.01337463,0.,-0.06021327,-0
 .03909826,0.,-0.00064202,-0.00053655,0.,-0.00075452,-0.00168670,0.,-0.
 00074253,-0.00532041,0.,-0.00409343,-0.00218221,0.,0.00672035,0.006644
 55,0.,0.39256783,-0.16729069,-0.17863684,0.,-0.06279469,-0.04346596,0.
 ,0.01645302,0.00259670,0.,0.00294654,-0.00489107,0.,0.00659552,0.00393
 949,0.,-0.00169960,0.00095812,0.,0.00001903,0.00319419,0.,0.00068435,0
 .00053708,0.,-0.00361534,-0.00590164,0.,-0.00218221,-0.00041884,0.,0.0
 0350923,0.01258513,0.,0.20737483,0.20950364,0.,0.,-0.04220979,0.,0.,0.
 01015976,0.,0.,0.00880611,0.,0.,-0.00189856,0.,0.,0.00325611,0.,0.,0.0
 0766364,0.,0.,-0.00446858,0.,0.,-0.00008667,0.,0.,-0.00132065,0.,0.,0.
 00025275,0.,0.,-0.00210993,0.,0.,0.02195582\\0.00000355,0.00033578,0.,
 0.00003016,-0.00002526,0.,-0.00028336,-0.00016982,0.,-0.00000355,-0.00
 033578,0.,-0.00003016,0.00002526,0.,0.00028336,0.00016982,0.,-0.000018
 46,0.00001194,0.,0.00001846,-0.00001194,0.,0.00005340,0.00015092,0.,0.
 00010316,0.00012497,0.,-0.00005340,-0.00015092,0.,-0.00010316,-0.00012
 497,0.\\\@


 MUD THROWN IS GROUND LOST -- FROM A TEA BAG
 Job cpu time:       0 days  0 hours  7 minutes 49.2 seconds.
 Elapsed time:       0 days  0 hours  7 minutes 49.8 seconds.
 File lengths (MBytes):  RWF=    154 Int=      0 D2E=      0 Chk=      8 Scr=      1
 Normal termination of Gaussian 16 at Thu Jan 30 13:15:59 2025.
