1 2 4 5 TtFB SP                                                         
SP        RPBE1PBE                                                    6-311++G(d,p)       
Number of atoms                            I               12
Info1-9                                    I   N=           9
          19          19           0           0           0         110
           1          18        -302
Full Title                                 C   N=           2
1 2 4 5 TtFB SP         
Route                                      C   N=           4
#p PBE1PBE/6-311++G(d,p) density=current nosymm 
Charge                                     I                0
Multiplicity                               I                1
Number of electrons                        I               74
Number of alpha electrons                  I               37
Number of beta electrons                   I               37
Number of basis functions                  I              234
Number of independent functions            I              234
Number of point charges in /Mol/           I                0
Number of translation vectors              I                0
Atomic numbers                             I   N=          12
           6           6           6           6           6           6
           1           1           9           9           9           9
Nuclear charges                            R   N=          12
  6.00000000E+00  6.00000000E+00  6.00000000E+00  6.00000000E+00  6.00000000E+00
  6.00000000E+00  1.00000000E+00  1.00000000E+00  9.00000000E+00  9.00000000E+00
  9.00000000E+00  9.00000000E+00
Current cartesian coordinates              R   N=          36
  2.26067695E+00  1.29444769E+00  0.00000000E+00  2.28398008E+00 -1.31874783E+00
  0.00000000E+00  9.41499539E-03 -2.60533837E+00 -1.88972612E-09 -2.26067695E+00
 -1.29444769E+00  0.00000000E+00 -2.28398008E+00  1.31874783E+00  0.00000000E+00
 -9.41499539E-03  2.60533837E+00 -1.88972612E-09  4.05664408E+00 -2.34163278E+00
  0.00000000E+00 -4.05664408E+00  2.34163278E+00  0.00000000E+00 -1.28981046E-02
 -5.12279048E+00  1.88972612E-09 -4.42989799E+00 -2.57205731E+00  0.00000000E+00
  1.28981046E-02  5.12279048E+00  0.00000000E+00  4.42989799E+00  2.57205731E+00
  0.00000000E+00
Number of symbols in /Mol/                 I                0
Force Field                                I                0
Atom Types                                 C   N=          12
                                                            
                                                            
                        
Int Atom Types                             I   N=          12
           0           0           0           0           0           0
           0           0           0           0           0           0
MM charges                                 R   N=          12
  0.00000000E+00  0.00000000E+00  0.00000000E+00  0.00000000E+00  0.00000000E+00
  0.00000000E+00  0.00000000E+00  0.00000000E+00  0.00000000E+00  0.00000000E+00
  0.00000000E+00  0.00000000E+00
Integer atomic weights                     I   N=          12
          12          12          12          12          12          12
           1           1          19          19          19          19
Real atomic weights                        R   N=          12
  1.20000000E+01  1.20000000E+01  1.20000000E+01  1.20000000E+01  1.20000000E+01
  1.20000000E+01  1.00782504E+00  1.00782504E+00  1.89984032E+01  1.89984032E+01
  1.89984032E+01  1.89984032E+01
Atom fragment info                         I   N=          12
           0           0           0           0           0           0
           0           0           0           0           0           0
Atom residue num                           I   N=          12
           0           0           0           0           0           0
           0           0           0           0           0           0
Nuclear spins                              I   N=          12
           0           0           0           0           0           0
           1           1           1           1           1           1
Nuclear ZEff                               R   N=          12
 -3.60000000E+00 -3.60000000E+00 -3.60000000E+00 -3.60000000E+00 -3.60000000E+00
 -3.60000000E+00 -1.00000000E+00 -1.00000000E+00 -6.75000000E+00 -6.75000000E+00
 -6.75000000E+00 -6.75000000E+00
Nuclear ZNuc                               R   N=          12
  6.00000000E+00  6.00000000E+00  6.00000000E+00  6.00000000E+00  6.00000000E+00
  6.00000000E+00  1.00000000E+00  1.00000000E+00  9.00000000E+00  9.00000000E+00
  9.00000000E+00  9.00000000E+00
Nuclear QMom                               R   N=          12
  0.00000000E+00  0.00000000E+00  0.00000000E+00  0.00000000E+00  0.00000000E+00
  0.00000000E+00  0.00000000E+00  0.00000000E+00  0.00000000E+00  0.00000000E+00
  0.00000000E+00  0.00000000E+00
Nuclear GFac                               R   N=          12
  0.00000000E+00  0.00000000E+00  0.00000000E+00  0.00000000E+00  0.00000000E+00
  0.00000000E+00  2.79284600E+00  2.79284600E+00  2.62886700E+00  2.62886700E+00
  2.62886700E+00  2.62886700E+00
MicOpt                                     I   N=          12
          -1          -1          -1          -1          -1          -1
          -1          -1          -1          -1          -1          -1
Number of residues                         I                0
Number of secondary structures             I                0
Number of contracted shells                I               70
Number of primitive shells                 I              144
Pure/Cartesian d shells                    I                0
Pure/Cartesian f shells                    I                0
Highest angular momentum                   I                2
Largest degree of contraction              I                6
Shell types                                I   N=          70
           0          -1          -1          -1          -1          -2
           0          -1          -1          -1          -1          -2
           0          -1          -1          -1          -1          -2
           0          -1          -1          -1          -1          -2
           0          -1          -1          -1          -1          -2
           0          -1          -1          -1          -1          -2
           0           0           0           0           1           0
           0           0           0           1           0          -1
          -1          -1          -1          -2           0          -1
          -1          -1          -1          -2           0          -1
          -1          -1          -1          -2           0          -1
          -1          -1          -1          -2
Number of primitives per shell             I   N=          70
           6           3           1           1           1           1
           6           3           1           1           1           1
           6           3           1           1           1           1
           6           3           1           1           1           1
           6           3           1           1           1           1
           6           3           1           1           1           1
           3           1           1           1           1           3
           1           1           1           1           6           3
           1           1           1           1           6           3
           1           1           1           1           6           3
           1           1           1           1           6           3
           1           1           1           1
Shell to atom map                          I   N=          70
           1           1           1           1           1           1
           2           2           2           2           2           2
           3           3           3           3           3           3
           4           4           4           4           4           4
           5           5           5           5           5           5
           6           6           6           6           6           6
           7           7           7           7           7           8
           8           8           8           8           9           9
           9           9           9           9          10          10
          10          10          10          10          11          11
          11          11          11          11          12          12
          12          12          12          12
Primitive exponents                        R   N=         144
  4.56324000E+03  6.82024000E+02  1.54973000E+02  4.44553000E+01  1.30290000E+01
  1.82773000E+00  2.09642000E+01  4.80331000E+00  1.45933000E+00  4.83456000E-01
  1.45585000E-01  4.38000000E-02  6.26000000E-01  4.56324000E+03  6.82024000E+02
  1.54973000E+02  4.44553000E+01  1.30290000E+01  1.82773000E+00  2.09642000E+01
  4.80331000E+00  1.45933000E+00  4.83456000E-01  1.45585000E-01  4.38000000E-02
  6.26000000E-01  4.56324000E+03  6.82024000E+02  1.54973000E+02  4.44553000E+01
  1.30290000E+01  1.82773000E+00  2.09642000E+01  4.80331000E+00  1.45933000E+00
  4.83456000E-01  1.45585000E-01  4.38000000E-02  6.26000000E-01  4.56324000E+03
  6.82024000E+02  1.54973000E+02  4.44553000E+01  1.30290000E+01  1.82773000E+00
  2.09642000E+01  4.80331000E+00  1.45933000E+00  4.83456000E-01  1.45585000E-01
  4.38000000E-02  6.26000000E-01  4.56324000E+03  6.82024000E+02  1.54973000E+02
  4.44553000E+01  1.30290000E+01  1.82773000E+00  2.09642000E+01  4.80331000E+00
  1.45933000E+00  4.83456000E-01  1.45585000E-01  4.38000000E-02  6.26000000E-01
  4.56324000E+03  6.82024000E+02  1.54973000E+02  4.44553000E+01  1.30290000E+01
  1.82773000E+00  2.09642000E+01  4.80331000E+00  1.45933000E+00  4.83456000E-01
  1.45585000E-01  4.38000000E-02  6.26000000E-01  3.38650000E+01  5.09479000E+00
  1.15879000E+00  3.25840000E-01  1.02741000E-01  3.60000000E-02  7.50000000E-01
  3.38650000E+01  5.09479000E+00  1.15879000E+00  3.25840000E-01  1.02741000E-01
  3.60000000E-02  7.50000000E-01  1.14271000E+04  1.72235000E+03  3.95746000E+02
  1.15139000E+02  3.36026000E+01  4.91901000E+00  5.54441000E+01  1.26323000E+01
  3.71756000E+00  1.16545000E+00  3.21892000E-01  1.07600000E-01  1.75000000E+00
  1.14271000E+04  1.72235000E+03  3.95746000E+02  1.15139000E+02  3.36026000E+01
  4.91901000E+00  5.54441000E+01  1.26323000E+01  3.71756000E+00  1.16545000E+00
  3.21892000E-01  1.07600000E-01  1.75000000E+00  1.14271000E+04  1.72235000E+03
  3.95746000E+02  1.15139000E+02  3.36026000E+01  4.91901000E+00  5.54441000E+01
  1.26323000E+01  3.71756000E+00  1.16545000E+00  3.21892000E-01  1.07600000E-01
  1.75000000E+00  1.14271000E+04  1.72235000E+03  3.95746000E+02  1.15139000E+02
  3.36026000E+01  4.91901000E+00  5.54441000E+01  1.26323000E+01  3.71756000E+00
  1.16545000E+00  3.21892000E-01  1.07600000E-01  1.75000000E+00
Contraction coefficients                   R   N=         144
  1.96665025E-03  1.52306019E-02  7.61269097E-02  2.60801033E-01  6.16462078E-01
  2.21006028E-01  1.14660081E-01  9.19999648E-01 -3.03068213E-03  1.00000000E+00
  1.00000000E+00  1.00000000E+00  1.00000000E+00  1.96665025E-03  1.52306019E-02
  7.61269097E-02  2.60801033E-01  6.16462078E-01  2.21006028E-01  1.14660081E-01
  9.19999648E-01 -3.03068213E-03  1.00000000E+00  1.00000000E+00  1.00000000E+00
  1.00000000E+00  1.96665025E-03  1.52306019E-02  7.61269097E-02  2.60801033E-01
  6.16462078E-01  2.21006028E-01  1.14660081E-01  9.19999648E-01 -3.03068213E-03
  1.00000000E+00  1.00000000E+00  1.00000000E+00  1.00000000E+00  1.96665025E-03
  1.52306019E-02  7.61269097E-02  2.60801033E-01  6.16462078E-01  2.21006028E-01
  1.14660081E-01  9.19999648E-01 -3.03068213E-03  1.00000000E+00  1.00000000E+00
  1.00000000E+00  1.00000000E+00  1.96665025E-03  1.52306019E-02  7.61269097E-02
  2.60801033E-01  6.16462078E-01  2.21006028E-01  1.14660081E-01  9.19999648E-01
 -3.03068213E-03  1.00000000E+00  1.00000000E+00  1.00000000E+00  1.00000000E+00
  1.96665025E-03  1.52306019E-02  7.61269097E-02  2.60801033E-01  6.16462078E-01
  2.21006028E-01  1.14660081E-01  9.19999648E-01 -3.03068213E-03  1.00000000E+00
  1.00000000E+00  1.00000000E+00  1.00000000E+00  2.54938145E-02  1.90373109E-01
  8.52161486E-01  1.00000000E+00  1.00000000E+00  1.00000000E+00  1.00000000E+00
  2.54938145E-02  1.90373109E-01  8.52161486E-01  1.00000000E+00  1.00000000E+00
  1.00000000E+00  1.00000000E+00  1.80093016E-03  1.37419012E-02  6.81334059E-02
  2.33325020E-01  5.89086051E-01  2.99505026E-01  1.14536016E-01  9.20512125E-01
 -3.37804046E-03  1.00000000E+00  1.00000000E+00  1.00000000E+00  1.00000000E+00
  1.80093016E-03  1.37419012E-02  6.81334059E-02  2.33325020E-01  5.89086051E-01
  2.99505026E-01  1.14536016E-01  9.20512125E-01 -3.37804046E-03  1.00000000E+00
  1.00000000E+00  1.00000000E+00  1.00000000E+00  1.80093016E-03  1.37419012E-02
  6.81334059E-02  2.33325020E-01  5.89086051E-01  2.99505026E-01  1.14536016E-01
  9.20512125E-01 -3.37804046E-03  1.00000000E+00  1.00000000E+00  1.00000000E+00
  1.00000000E+00  1.80093016E-03  1.37419012E-02  6.81334059E-02  2.33325020E-01
  5.89086051E-01  2.99505026E-01  1.14536016E-01  9.20512125E-01 -3.37804046E-03
  1.00000000E+00  1.00000000E+00  1.00000000E+00  1.00000000E+00
P(S=P) Contraction coefficients            R   N=         144
  0.00000000E+00  0.00000000E+00  0.00000000E+00  0.00000000E+00  0.00000000E+00
  0.00000000E+00  4.02486927E-02  2.37593957E-01  8.15853851E-01  1.00000000E+00
  1.00000000E+00  1.00000000E+00  0.00000000E+00  0.00000000E+00  0.00000000E+00
  0.00000000E+00  0.00000000E+00  0.00000000E+00  0.00000000E+00  4.02486927E-02
  2.37593957E-01  8.15853851E-01  1.00000000E+00  1.00000000E+00  1.00000000E+00
  0.00000000E+00  0.00000000E+00  0.00000000E+00  0.00000000E+00  0.00000000E+00
  0.00000000E+00  0.00000000E+00  4.02486927E-02  2.37593957E-01  8.15853851E-01
  1.00000000E+00  1.00000000E+00  1.00000000E+00  0.00000000E+00  0.00000000E+00
  0.00000000E+00  0.00000000E+00  0.00000000E+00  0.00000000E+00  0.00000000E+00
  4.02486927E-02  2.37593957E-01  8.15853851E-01  1.00000000E+00  1.00000000E+00
  1.00000000E+00  0.00000000E+00  0.00000000E+00  0.00000000E+00  0.00000000E+00
  0.00000000E+00  0.00000000E+00  0.00000000E+00  4.02486927E-02  2.37593957E-01
  8.15853851E-01  1.00000000E+00  1.00000000E+00  1.00000000E+00  0.00000000E+00
  0.00000000E+00  0.00000000E+00  0.00000000E+00  0.00000000E+00  0.00000000E+00
  0.00000000E+00  4.02486927E-02  2.37593957E-01  8.15853851E-01  1.00000000E+00
  1.00000000E+00  1.00000000E+00  0.00000000E+00  0.00000000E+00  0.00000000E+00
  0.00000000E+00  0.00000000E+00  0.00000000E+00  0.00000000E+00  0.00000000E+00
  0.00000000E+00  0.00000000E+00  0.00000000E+00  0.00000000E+00  0.00000000E+00
  0.00000000E+00  0.00000000E+00  0.00000000E+00  0.00000000E+00  0.00000000E+00
  0.00000000E+00  0.00000000E+00  0.00000000E+00  3.54608874E-02  2.37450915E-01
  8.20457708E-01  1.00000000E+00  1.00000000E+00  1.00000000E+00  0.00000000E+00
  0.00000000E+00  0.00000000E+00  0.00000000E+00  0.00000000E+00  0.00000000E+00
  0.00000000E+00  3.54608874E-02  2.37450915E-01  8.20457708E-01  1.00000000E+00
  1.00000000E+00  1.00000000E+00  0.00000000E+00  0.00000000E+00  0.00000000E+00
  0.00000000E+00  0.00000000E+00  0.00000000E+00  0.00000000E+00  3.54608874E-02
  2.37450915E-01  8.20457708E-01  1.00000000E+00  1.00000000E+00  1.00000000E+00
  0.00000000E+00  0.00000000E+00  0.00000000E+00  0.00000000E+00  0.00000000E+00
  0.00000000E+00  0.00000000E+00  3.54608874E-02  2.37450915E-01  8.20457708E-01
  1.00000000E+00  1.00000000E+00  1.00000000E+00  0.00000000E+00
Coordinates of each shell                  R   N=         210
  2.26067695E+00  1.29444769E+00  0.00000000E+00  2.26067695E+00  1.29444769E+00
  0.00000000E+00  2.26067695E+00  1.29444769E+00  0.00000000E+00  2.26067695E+00
  1.29444769E+00  0.00000000E+00  2.26067695E+00  1.29444769E+00  0.00000000E+00
  2.26067695E+00  1.29444769E+00  0.00000000E+00  2.28398008E+00 -1.31874783E+00
  0.00000000E+00  2.28398008E+00 -1.31874783E+00  0.00000000E+00  2.28398008E+00
 -1.31874783E+00  0.00000000E+00  2.28398008E+00 -1.31874783E+00  0.00000000E+00
  2.28398008E+00 -1.31874783E+00  0.00000000E+00  2.28398008E+00 -1.31874783E+00
  0.00000000E+00  9.41499539E-03 -2.60533837E+00 -1.88972612E-09  9.41499539E-03
 -2.60533837E+00 -1.88972612E-09  9.41499539E-03 -2.60533837E+00 -1.88972612E-09
  9.41499539E-03 -2.60533837E+00 -1.88972612E-09  9.41499539E-03 -2.60533837E+00
 -1.88972612E-09  9.41499539E-03 -2.60533837E+00 -1.88972612E-09 -2.26067695E+00
 -1.29444769E+00  0.00000000E+00 -2.26067695E+00 -1.29444769E+00  0.00000000E+00
 -2.26067695E+00 -1.29444769E+00  0.00000000E+00 -2.26067695E+00 -1.29444769E+00
  0.00000000E+00 -2.26067695E+00 -1.29444769E+00  0.00000000E+00 -2.26067695E+00
 -1.29444769E+00  0.00000000E+00 -2.28398008E+00  1.31874783E+00  0.00000000E+00
 -2.28398008E+00  1.31874783E+00  0.00000000E+00 -2.28398008E+00  1.31874783E+00
  0.00000000E+00 -2.28398008E+00  1.31874783E+00  0.00000000E+00 -2.28398008E+00
  1.31874783E+00  0.00000000E+00 -2.28398008E+00  1.31874783E+00  0.00000000E+00
 -9.41499539E-03  2.60533837E+00 -1.88972612E-09 -9.41499539E-03  2.60533837E+00
 -1.88972612E-09 -9.41499539E-03  2.60533837E+00 -1.88972612E-09 -9.41499539E-03
  2.60533837E+00 -1.88972612E-09 -9.41499539E-03  2.60533837E+00 -1.88972612E-09
 -9.41499539E-03  2.60533837E+00 -1.88972612E-09  4.05664408E+00 -2.34163278E+00
  0.00000000E+00  4.05664408E+00 -2.34163278E+00  0.00000000E+00  4.05664408E+00
 -2.34163278E+00  0.00000000E+00  4.05664408E+00 -2.34163278E+00  0.00000000E+00
  4.05664408E+00 -2.34163278E+00  0.00000000E+00 -4.05664408E+00  2.34163278E+00
  0.00000000E+00 -4.05664408E+00  2.34163278E+00  0.00000000E+00 -4.05664408E+00
  2.34163278E+00  0.00000000E+00 -4.05664408E+00  2.34163278E+00  0.00000000E+00
 -4.05664408E+00  2.34163278E+00  0.00000000E+00 -1.28981046E-02 -5.12279048E+00
  1.88972612E-09 -1.28981046E-02 -5.12279048E+00  1.88972612E-09 -1.28981046E-02
 -5.12279048E+00  1.88972612E-09 -1.28981046E-02 -5.12279048E+00  1.88972612E-09
 -1.28981046E-02 -5.12279048E+00  1.88972612E-09 -1.28981046E-02 -5.12279048E+00
  1.88972612E-09 -4.42989799E+00 -2.57205731E+00  0.00000000E+00 -4.42989799E+00
 -2.57205731E+00  0.00000000E+00 -4.42989799E+00 -2.57205731E+00  0.00000000E+00
 -4.42989799E+00 -2.57205731E+00  0.00000000E+00 -4.42989799E+00 -2.57205731E+00
  0.00000000E+00 -4.42989799E+00 -2.57205731E+00  0.00000000E+00  1.28981046E-02
  5.12279048E+00  0.00000000E+00  1.28981046E-02  5.12279048E+00  0.00000000E+00
  1.28981046E-02  5.12279048E+00  0.00000000E+00  1.28981046E-02  5.12279048E+00
  0.00000000E+00  1.28981046E-02  5.12279048E+00  0.00000000E+00  1.28981046E-02
  5.12279048E+00  0.00000000E+00  4.42989799E+00  2.57205731E+00  0.00000000E+00
  4.42989799E+00  2.57205731E+00  0.00000000E+00  4.42989799E+00  2.57205731E+00
  0.00000000E+00  4.42989799E+00  2.57205731E+00  0.00000000E+00  4.42989799E+00
  2.57205731E+00  0.00000000E+00  4.42989799E+00  2.57205731E+00  0.00000000E+00
Num ILSW                                   I              100
ILSW                                       I   N=         100
           0           0           0           0           2           0
           0           0           0           0        1009          -1
           5           0           0           0           0           0
           0           0           0           0           0           0
           1           1           0           0           0           0
           0           0      100000           0          -1           0
           0           0           0           0           0           0
           0           0           0           1           0           0
           0 -2000000000           1           0           0           0
           0           0           4          52           0           0
           0           0          13           0           0           0
           0           0           0          12           0           1
           0           0           0           0           0           0
           0           0           0           0           0           0
           0           0           0           0           0           0
           0           0           0           0           0           0
           0           0           0           0
Num RLSW                                   I               52
RLSW                                       R   N=          52
  7.50000000E-01  7.50000000E-01  1.00000000E+00  1.00000000E+00  2.50000000E-01
  0.00000000E+00  0.00000000E+00  1.00000000E+00  0.00000000E+00  0.00000000E+00
  0.00000000E+00  0.00000000E+00  1.00000000E+00  0.00000000E+00  0.00000000E+00
  0.00000000E+00  0.00000000E+00  1.00000000E+00  0.00000000E+00  0.00000000E+00
  0.00000000E+00  0.00000000E+00  1.00000000E+00  0.00000000E+00  0.00000000E+00
  0.00000000E+00  0.00000000E+00  1.00000000E+00  0.00000000E+00  0.00000000E+00
  0.00000000E+00  0.00000000E+00  1.00000000E+00  0.00000000E+00  0.00000000E+00
  0.00000000E+00  0.00000000E+00  0.00000000E+00  1.00000000E+00  1.00000000E+00
  0.00000000E+00  1.00000000E+00  0.00000000E+00  0.00000000E+00  0.00000000E+00
  0.00000000E+00  0.00000000E+00  0.00000000E+00  0.00000000E+00  0.00000000E+00
  0.00000000E+00  0.00000000E+00
MxBond                                     I                3
NBond                                      I   N=          12
           3           3           3           3           3           3
           1           1           1           1           1           1
IBond                                      I   N=          36
           2           6          12           1           3           7
           2           4           9           3           5          10
           4           6           8           1           5          11
           2           0           0           5           0           0
           3           0           0           4           0           0
           6           0           0           1           0           0
RBond                                      R   N=          36
  1.50000000E+00  1.50000000E+00  1.00000000E+00  1.50000000E+00  1.50000000E+00
  1.00000000E+00  1.50000000E+00  1.50000000E+00  1.00000000E+00  1.50000000E+00
  1.50000000E+00  1.00000000E+00  1.50000000E+00  1.50000000E+00  1.00000000E+00
  1.50000000E+00  1.50000000E+00  1.00000000E+00  1.00000000E+00  0.00000000E+00
  0.00000000E+00  1.00000000E+00  0.00000000E+00  0.00000000E+00  1.00000000E+00
  0.00000000E+00  0.00000000E+00  1.00000000E+00  0.00000000E+00  0.00000000E+00
  1.00000000E+00  0.00000000E+00  0.00000000E+00  1.00000000E+00  0.00000000E+00
  0.00000000E+00
Virial Ratio                               R      2.002735487696828E+00
SCF Energy                                 R     -6.287185134975711E+02
Total Energy                               R     -6.287185134975711E+02
RMS Density                                R      8.892562292190664E-09
Job Status                                 I                1
Nuclear derivative order                   I                0
External E-field                           R   N=          35
  0.00000000E+00  0.00000000E+00  0.00000000E+00  0.00000000E+00  0.00000000E+00
  0.00000000E+00  0.00000000E+00  0.00000000E+00  0.00000000E+00  0.00000000E+00
  0.00000000E+00  0.00000000E+00  0.00000000E+00  0.00000000E+00  0.00000000E+00
  0.00000000E+00  0.00000000E+00  0.00000000E+00  0.00000000E+00  0.00000000E+00
  0.00000000E+00  0.00000000E+00  0.00000000E+00  0.00000000E+00  0.00000000E+00
  0.00000000E+00  0.00000000E+00  0.00000000E+00  0.00000000E+00  0.00000000E+00
  0.00000000E+00  0.00000000E+00  0.00000000E+00  0.00000000E+00  0.00000000E+00
IOpCl                                      I                0
IROHF                                      I                0
Alpha Orbital Energies                     R   N=         234
 -2.48118626E+01 -2.48118605E+01 -2.48118499E+01 -2.48118483E+01 -1.03478306E+01
 -1.03478144E+01 -1.03472177E+01 -1.03472099E+01 -1.02734551E+01 -1.02734430E+01
 -1.30517029E+00 -1.30457629E+00 -1.29127672E+00 -1.29087729E+00 -9.40003764E-01
 -8.27801533E-01 -8.12066262E-01 -7.08293300E-01 -6.86658313E-01 -6.25323919E-01
 -6.08081071E-01 -6.07417194E-01 -5.74448309E-01 -5.44414804E-01 -5.34557384E-01
 -5.26879258E-01 -5.08925904E-01 -5.03765824E-01 -5.00709840E-01 -4.98452577E-01
 -4.71981005E-01 -4.45179981E-01 -4.16328618E-01 -4.16086889E-01 -3.90931470E-01
 -3.04355955E-01 -2.77152187E-01 -4.61514860E-02 -1.87982477E-02 -2.74639723E-03
  1.41352866E-02  1.47935905E-02  2.22410585E-02  5.73334382E-02  6.24017188E-02
  7.78241421E-02  8.02219641E-02  8.53172449E-02  9.59790862E-02  9.91381893E-02
  1.11559164E-01  1.18473346E-01  1.26177193E-01  1.34473345E-01  1.34545566E-01
  1.35645679E-01  1.39780684E-01  1.46447264E-01  1.50032894E-01  1.59206121E-01
  1.63937461E-01  1.80572105E-01  1.85629829E-01  1.91390060E-01  2.04392783E-01
  2.07822264E-01  2.10452532E-01  2.39282064E-01  2.59954372E-01  2.69278138E-01
  2.69761149E-01  2.77468363E-01  2.85001259E-01  3.03336051E-01  3.26685493E-01
  3.29815270E-01  3.37929190E-01  3.40166659E-01  3.55259157E-01  3.72138574E-01
  3.74744529E-01  3.75799256E-01  3.95676427E-01  3.95780462E-01  3.95909078E-01
  4.04664148E-01  4.26523671E-01  4.31347052E-01  4.45019282E-01  4.45853094E-01
  4.93434204E-01  5.02160648E-01  5.23483270E-01  5.37527642E-01  5.52388206E-01
  5.62576568E-01  5.63014451E-01  5.70378851E-01  5.73735141E-01  5.98757186E-01
  6.10608049E-01  6.30487132E-01  6.97203169E-01  7.05432681E-01  7.09748322E-01
  7.14235804E-01  7.36922626E-01  7.86553333E-01  8.06555680E-01  8.49980047E-01
  8.54958833E-01  8.68188756E-01  9.00246900E-01  9.25692502E-01  9.40276984E-01
  9.43771890E-01  9.95447211E-01  9.98610657E-01  1.00123437E+00  1.01818227E+00
  1.07099185E+00  1.10831684E+00  1.11676124E+00  1.14474581E+00  1.19048603E+00
  1.25062123E+00  1.31381263E+00  1.38172694E+00  1.39915223E+00  1.41553330E+00
  1.43008483E+00  1.43574333E+00  1.44267420E+00  1.44748849E+00  1.44979853E+00
  1.45753053E+00  1.52646457E+00  1.52729177E+00  1.53395175E+00  1.53413848E+00
  1.54655689E+00  1.54723573E+00  1.57781814E+00  1.63574800E+00  1.64961315E+00
  1.67905066E+00  1.71959410E+00  1.73770545E+00  1.74490866E+00  1.83512390E+00
  1.85891593E+00  1.87333132E+00  1.94221511E+00  1.96940014E+00  1.97351478E+00
  2.00342316E+00  2.01433169E+00  2.03087076E+00  2.06440644E+00  2.09542658E+00
  2.12385802E+00  2.14067085E+00  2.14484022E+00  2.21628515E+00  2.25956862E+00
  2.27732329E+00  2.38712498E+00  2.43776484E+00  2.57886487E+00  2.59578602E+00
  2.65019127E+00  2.69678713E+00  2.69808300E+00  2.72130761E+00  2.76170789E+00
  2.79812882E+00  2.83465315E+00  2.85886372E+00  3.06629966E+00  3.08314625E+00
  3.12056871E+00  3.12912857E+00  3.17662890E+00  3.26198730E+00  3.33863940E+00
  3.45439701E+00  3.53121031E+00  3.73996511E+00  3.75021763E+00  3.75848742E+00
  3.76767129E+00  3.77211029E+00  3.78265172E+00  3.78797373E+00  3.84269431E+00
  3.84833232E+00  3.86216165E+00  3.96156054E+00  3.96787708E+00  3.97934646E+00
  4.01450682E+00  4.02266291E+00  4.03085861E+00  4.07881145E+00  4.14488771E+00
  4.21037822E+00  4.21940729E+00  4.77731972E+00  4.82805293E+00  4.86945813E+00
  4.94844997E+00  4.95997300E+00  6.31034453E+00  6.33620087E+00  6.36761838E+00
  6.38312447E+00  6.41732086E+00  6.44116332E+00  6.50419892E+00  6.54259327E+00
  6.63592754E+00  6.77664679E+00  6.86516305E+00  6.89774951E+00  2.35327346E+01
  2.39167809E+01  2.39884089E+01  2.40891818E+01  2.41682453E+01  2.42497676E+01
  6.69064400E+01  6.69179112E+01  6.69517778E+01  6.69714931E+01
Alpha MO coefficients                      R   N=       54756
  9.79578993E-06 -4.27364271E-05  6.49165050E-06 -4.67089428E-05 -2.53845210E-14
  4.70388306E-04  6.63868575E-05  3.06376006E-04  4.61391645E-14 -1.27570490E-02
  7.58003733E-03  6.48151971E-03  4.82563303E-12 -4.50584229E-02  9.19512493E-03
 -1.10470417E-03 -7.35772966E-12  3.59374504E-05 -1.47681100E-13 -5.04577567E-13
  3.52645080E-05 -9.17203416E-05 -5.97205322E-06  2.64359701E-05  6.33790289E-05
 -7.06078871E-05  5.27396872E-14 -4.05716255E-04 -3.07698118E-04  3.49355347E-04
 -1.46135345E-13  1.44922902E-02 -7.18997869E-03  5.37988907E-03 -6.04932630E-12
  3.38410566E-02 -1.02300629E-02  3.76021350E-03  1.16362812E-11 -6.60074356E-05
  4.84935909E-13 -3.83752615E-13 -1.06766289E-06 -8.31454222E-05  2.05579718E-05
 -8.72751719E-05  1.47572870E-05 -8.75266292E-05  8.70330750E-14  7.08311119E-04
 -8.66362910E-05 -1.08129219E-04  3.92197042E-13 -9.72752517E-03 -7.72480572E-04
 -1.15763260E-02 -1.10892662E-12 -5.19898347E-02  3.60916793E-03 -7.36586039E-03
 -2.93175876E-11 -5.35455307E-05 -1.36232041E-13 -1.84866874E-12  1.73907045E-05
 -3.53488891E-05 -9.79578916E-06  4.27364238E-05  6.49164669E-06 -4.67089440E-05
  3.83850664E-15 -4.70388287E-04  6.63868669E-05  3.06376010E-04  3.48708422E-14
  1.27570489E-02  7.58003685E-03  6.48151956E-03 -5.75971572E-12  4.50584227E-02
  9.19512471E-03 -1.10470365E-03  8.23941346E-12 -3.59374518E-05 -3.24365873E-13
 -4.26930222E-13 -3.52645149E-05  9.17203391E-05  5.97205358E-06 -2.64359717E-05
  6.33790284E-05 -7.06078862E-05 -6.41605741E-14  4.05716265E-04 -3.07698117E-04
  3.49355338E-04  2.00937373E-13 -1.44922903E-02 -7.18997876E-03  5.37988928E-03
  5.30329562E-12 -3.38410581E-02 -1.02300632E-02  3.76021386E-03 -1.04849581E-11
  6.60074369E-05  3.31797020E-13 -4.51082552E-13  1.06765484E-06  8.31454249E-05
 -2.05579735E-05  8.72751792E-05  1.47572870E-05 -8.75266399E-05 -4.66975029E-14