1 2 4-DFB SP                                                            
SP        RPBE1PBE                                                    6-311++G(d,p)       
Number of atoms                            I               12
Info1-9                                    I   N=           9
          19          19           0           0           0         110
           1          18        -302
Full Title                                 C   N=           1
1 2 4-DFB SP
Route                                      C   N=           4
#p PBE1PBE/6-311++G(d,p) density=current nosymm 
Charge                                     I                0
Multiplicity                               I                1
Number of electrons                        I               66
Number of alpha electrons                  I               33
Number of beta electrons                   I               33
Number of basis functions                  I              219
Number of independent functions            I              219
Number of point charges in /Mol/           I                0
Number of translation vectors              I                0
Atomic numbers                             I   N=          12
           6           6           6           6           6           6
           1           1           9           9           9           1
Nuclear charges                            R   N=          12
  6.00000000E+00  6.00000000E+00  6.00000000E+00  6.00000000E+00  6.00000000E+00
  6.00000000E+00  1.00000000E+00  1.00000000E+00  9.00000000E+00  9.00000000E+00
  9.00000000E+00  1.00000000E+00
Current cartesian coordinates              R   N=          36
  2.28138525E+00  1.31738563E+00 -1.13383567E-08  2.26813258E+00 -1.30976979E+00
  1.51178090E-08  1.56599714E-04 -2.60279379E+00  0.00000000E+00 -2.26964510E+00
 -1.28630458E+00 -1.13383567E-08 -2.30176018E+00  1.32570531E+00  1.88972612E-09
 -5.91956520E-03  2.58029311E+00  9.44863062E-09  4.03325941E+00  2.37520712E+00
 -1.70075351E-08  4.01480202E+00 -2.37920320E+00  1.88972612E-08 -3.73332725E-02
 -5.12573742E+00 -1.13383567E-08 -4.43722106E+00 -2.56679340E+00 -3.77945225E-09
 -1.78610545E-02  5.11299763E+00 -3.77945225E-09 -4.07586414E+00  2.34566991E+00
  1.13383567E-08
Number of symbols in /Mol/                 I                0
Force Field                                I                0
Atom Types                                 C   N=          12
                                                            
                                                            
                        
Int Atom Types                             I   N=          12
           0           0           0           0           0           0
           0           0           0           0           0           0
MM charges                                 R   N=          12
  0.00000000E+00  0.00000000E+00  0.00000000E+00  0.00000000E+00  0.00000000E+00
  0.00000000E+00  0.00000000E+00  0.00000000E+00  0.00000000E+00  0.00000000E+00
  0.00000000E+00  0.00000000E+00
Integer atomic weights                     I   N=          12
          12          12          12          12          12          12
           1           1          19          19          19           1
Real atomic weights                        R   N=          12
  1.20000000E+01  1.20000000E+01  1.20000000E+01  1.20000000E+01  1.20000000E+01
  1.20000000E+01  1.00782504E+00  1.00782504E+00  1.89984032E+01  1.89984032E+01
  1.89984032E+01  1.00782504E+00
Atom fragment info                         I   N=          12
           0           0           0           0           0           0
           0           0           0           0           0           0
Atom residue num                           I   N=          12
           0           0           0           0           0           0
           0           0           0           0           0           0
Nuclear spins                              I   N=          12
           0           0           0           0           0           0
           1           1           1           1           1           1
Nuclear ZEff                               R   N=          12
 -3.60000000E+00 -3.60000000E+00 -3.60000000E+00 -3.60000000E+00 -3.60000000E+00
 -3.60000000E+00 -1.00000000E+00 -1.00000000E+00 -6.75000000E+00 -6.75000000E+00
 -6.75000000E+00 -1.00000000E+00
Nuclear ZNuc                               R   N=          12
  6.00000000E+00  6.00000000E+00  6.00000000E+00  6.00000000E+00  6.00000000E+00
  6.00000000E+00  1.00000000E+00  1.00000000E+00  9.00000000E+00  9.00000000E+00
  9.00000000E+00  1.00000000E+00
Nuclear QMom                               R   N=          12
  0.00000000E+00  0.00000000E+00  0.00000000E+00  0.00000000E+00  0.00000000E+00
  0.00000000E+00  0.00000000E+00  0.00000000E+00  0.00000000E+00  0.00000000E+00
  0.00000000E+00  0.00000000E+00
Nuclear GFac                               R   N=          12
  0.00000000E+00  0.00000000E+00  0.00000000E+00  0.00000000E+00  0.00000000E+00
  0.00000000E+00  2.79284600E+00  2.79284600E+00  2.62886700E+00  2.62886700E+00
  2.62886700E+00  2.79284600E+00
MicOpt                                     I   N=          12
          -1          -1          -1          -1          -1          -1
          -1          -1          -1          -1          -1          -1
Number of residues                         I                0
Number of secondary structures             I                0
SymInf integers                            I   N=          26
           1           2           1           1           1           1
           1          -1           0           0           0           0
           0           0           0           0           0           0
           0           0           0           0           0           0
           0           0
RotTr to input orientation                 R   N=          12
  9.82481240E-01 -1.86361514E-01  0.00000000E+00  1.86361514E-01  9.82481240E-01
  0.00000000E+00  0.00000000E+00  0.00000000E+00  1.00000000E+00 -5.54930964E-01
 -3.14045905E-01 -2.03288719E-09
Number of contracted shells                I               69
Number of primitive shells                 I              138
Pure/Cartesian d shells                    I                0
Pure/Cartesian f shells                    I                0
Highest angular momentum                   I                2
Largest degree of contraction              I                6
Shell types                                I   N=          69
           0          -1          -1          -1          -1          -2
           0          -1          -1          -1          -1          -2
           0          -1          -1          -1          -1          -2
           0          -1          -1          -1          -1          -2
           0          -1          -1          -1          -1          -2
           0          -1          -1          -1          -1          -2
           0           0           0           0           1           0
           0           0           0           1           0          -1
          -1          -1          -1          -2           0          -1
          -1          -1          -1          -2           0          -1
          -1          -1          -1          -2           0           0
           0           0           1
Number of primitives per shell             I   N=          69
           6           3           1           1           1           1
           6           3           1           1           1           1
           6           3           1           1           1           1
           6           3           1           1           1           1
           6           3           1           1           1           1
           6           3           1           1           1           1
           3           1           1           1           1           3
           1           1           1           1           6           3
           1           1           1           1           6           3
           1           1           1           1           6           3
           1           1           1           1           3           1
           1           1           1
Shell to atom map                          I   N=          69
           1           1           1           1           1           1
           2           2           2           2           2           2
           3           3           3           3           3           3
           4           4           4           4           4           4
           5           5           5           5           5           5
           6           6           6           6           6           6
           7           7           7           7           7           8
           8           8           8           8           9           9
           9           9           9           9          10          10
          10          10          10          10          11          11
          11          11          11          11          12          12
          12          12          12
Primitive exponents                        R   N=         138
  4.56324000E+03  6.82024000E+02  1.54973000E+02  4.44553000E+01  1.30290000E+01
  1.82773000E+00  2.09642000E+01  4.80331000E+00  1.45933000E+00  4.83456000E-01
  1.45585000E-01  4.38000000E-02  6.26000000E-01  4.56324000E+03  6.82024000E+02
  1.54973000E+02  4.44553000E+01  1.30290000E+01  1.82773000E+00  2.09642000E+01
  4.80331000E+00  1.45933000E+00  4.83456000E-01  1.45585000E-01  4.38000000E-02
  6.26000000E-01  4.56324000E+03  6.82024000E+02  1.54973000E+02  4.44553000E+01
  1.30290000E+01  1.82773000E+00  2.09642000E+01  4.80331000E+00  1.45933000E+00
  4.83456000E-01  1.45585000E-01  4.38000000E-02  6.26000000E-01  4.56324000E+03
  6.82024000E+02  1.54973000E+02  4.44553000E+01  1.30290000E+01  1.82773000E+00
  2.09642000E+01  4.80331000E+00  1.45933000E+00  4.83456000E-01  1.45585000E-01
  4.38000000E-02  6.26000000E-01  4.56324000E+03  6.82024000E+02  1.54973000E+02
  4.44553000E+01  1.30290000E+01  1.82773000E+00  2.09642000E+01  4.80331000E+00
  1.45933000E+00  4.83456000E-01  1.45585000E-01  4.38000000E-02  6.26000000E-01
  4.56324000E+03  6.82024000E+02  1.54973000E+02  4.44553000E+01  1.30290000E+01
  1.82773000E+00  2.09642000E+01  4.80331000E+00  1.45933000E+00  4.83456000E-01
  1.45585000E-01  4.38000000E-02  6.26000000E-01  3.38650000E+01  5.09479000E+00
  1.15879000E+00  3.25840000E-01  1.02741000E-01  3.60000000E-02  7.50000000E-01
  3.38650000E+01  5.09479000E+00  1.15879000E+00  3.25840000E-01  1.02741000E-01
  3.60000000E-02  7.50000000E-01  1.14271000E+04  1.72235000E+03  3.95746000E+02
  1.15139000E+02  3.36026000E+01  4.91901000E+00  5.54441000E+01  1.26323000E+01
  3.71756000E+00  1.16545000E+00  3.21892000E-01  1.07600000E-01  1.75000000E+00
  1.14271000E+04  1.72235000E+03  3.95746000E+02  1.15139000E+02  3.36026000E+01
  4.91901000E+00  5.54441000E+01  1.26323000E+01  3.71756000E+00  1.16545000E+00
  3.21892000E-01  1.07600000E-01  1.75000000E+00  1.14271000E+04  1.72235000E+03
  3.95746000E+02  1.15139000E+02  3.36026000E+01  4.91901000E+00  5.54441000E+01
  1.26323000E+01  3.71756000E+00  1.16545000E+00  3.21892000E-01  1.07600000E-01
  1.75000000E+00  3.38650000E+01  5.09479000E+00  1.15879000E+00  3.25840000E-01
  1.02741000E-01  3.60000000E-02  7.50000000E-01
Contraction coefficients                   R   N=         138
  1.96665025E-03  1.52306019E-02  7.61269097E-02  2.60801033E-01  6.16462078E-01
  2.21006028E-01  1.14660081E-01  9.19999648E-01 -3.03068213E-03  1.00000000E+00
  1.00000000E+00  1.00000000E+00  1.00000000E+00  1.96665025E-03  1.52306019E-02
  7.61269097E-02  2.60801033E-01  6.16462078E-01  2.21006028E-01  1.14660081E-01
  9.19999648E-01 -3.03068213E-03  1.00000000E+00  1.00000000E+00  1.00000000E+00
  1.00000000E+00  1.96665025E-03  1.52306019E-02  7.61269097E-02  2.60801033E-01
  6.16462078E-01  2.21006028E-01  1.14660081E-01  9.19999648E-01 -3.03068213E-03
  1.00000000E+00  1.00000000E+00  1.00000000E+00  1.00000000E+00  1.96665025E-03
  1.52306019E-02  7.61269097E-02  2.60801033E-01  6.16462078E-01  2.21006028E-01
  1.14660081E-01  9.19999648E-01 -3.03068213E-03  1.00000000E+00  1.00000000E+00
  1.00000000E+00  1.00000000E+00  1.96665025E-03  1.52306019E-02  7.61269097E-02
  2.60801033E-01  6.16462078E-01  2.21006028E-01  1.14660081E-01  9.19999648E-01
 -3.03068213E-03  1.00000000E+00  1.00000000E+00  1.00000000E+00  1.00000000E+00
  1.96665025E-03  1.52306019E-02  7.61269097E-02  2.60801033E-01  6.16462078E-01
  2.21006028E-01  1.14660081E-01  9.19999648E-01 -3.03068213E-03  1.00000000E+00
  1.00000000E+00  1.00000000E+00  1.00000000E+00  2.54938145E-02  1.90373109E-01
  8.52161486E-01  1.00000000E+00  1.00000000E+00  1.00000000E+00  1.00000000E+00
  2.54938145E-02  1.90373109E-01  8.52161486E-01  1.00000000E+00  1.00000000E+00
  1.00000000E+00  1.00000000E+00  1.80093016E-03  1.37419012E-02  6.81334059E-02
  2.33325020E-01  5.89086051E-01  2.99505026E-01  1.14536016E-01  9.20512125E-01
 -3.37804046E-03  1.00000000E+00  1.00000000E+00  1.00000000E+00  1.00000000E+00
  1.80093016E-03  1.37419012E-02  6.81334059E-02  2.33325020E-01  5.89086051E-01
  2.99505026E-01  1.14536016E-01  9.20512125E-01 -3.37804046E-03  1.00000000E+00
  1.00000000E+00  1.00000000E+00  1.00000000E+00  1.80093016E-03  1.37419012E-02
  6.81334059E-02  2.33325020E-01  5.89086051E-01  2.99505026E-01  1.14536016E-01
  9.20512125E-01 -3.37804046E-03  1.00000000E+00  1.00000000E+00  1.00000000E+00
  1.00000000E+00  2.54938145E-02  1.90373109E-01  8.52161486E-01  1.00000000E+00
  1.00000000E+00  1.00000000E+00  1.00000000E+00
P(S=P) Contraction coefficients            R   N=         138
  0.00000000E+00  0.00000000E+00  0.00000000E+00  0.00000000E+00  0.00000000E+00
  0.00000000E+00  4.02486927E-02  2.37593957E-01  8.15853851E-01  1.00000000E+00
  1.00000000E+00  1.00000000E+00  0.00000000E+00  0.00000000E+00  0.00000000E+00
  0.00000000E+00  0.00000000E+00  0.00000000E+00  0.00000000E+00  4.02486927E-02
  2.37593957E-01  8.15853851E-01  1.00000000E+00  1.00000000E+00  1.00000000E+00
  0.00000000E+00  0.00000000E+00  0.00000000E+00  0.00000000E+00  0.00000000E+00
  0.00000000E+00  0.00000000E+00  4.02486927E-02  2.37593957E-01  8.15853851E-01
  1.00000000E+00  1.00000000E+00  1.00000000E+00  0.00000000E+00  0.00000000E+00
  0.00000000E+00  0.00000000E+00  0.00000000E+00  0.00000000E+00  0.00000000E+00
  4.02486927E-02  2.37593957E-01  8.15853851E-01  1.00000000E+00  1.00000000E+00
  1.00000000E+00  0.00000000E+00  0.00000000E+00  0.00000000E+00  0.00000000E+00
  0.00000000E+00  0.00000000E+00  0.00000000E+00  4.02486927E-02  2.37593957E-01
  8.15853851E-01  1.00000000E+00  1.00000000E+00  1.00000000E+00  0.00000000E+00
  0.00000000E+00  0.00000000E+00  0.00000000E+00  0.00000000E+00  0.00000000E+00
  0.00000000E+00  4.02486927E-02  2.37593957E-01  8.15853851E-01  1.00000000E+00
  1.00000000E+00  1.00000000E+00  0.00000000E+00  0.00000000E+00  0.00000000E+00
  0.00000000E+00  0.00000000E+00  0.00000000E+00  0.00000000E+00  0.00000000E+00
  0.00000000E+00  0.00000000E+00  0.00000000E+00  0.00000000E+00  0.00000000E+00
  0.00000000E+00  0.00000000E+00  0.00000000E+00  0.00000000E+00  0.00000000E+00
  0.00000000E+00  0.00000000E+00  0.00000000E+00  3.54608874E-02  2.37450915E-01
  8.20457708E-01  1.00000000E+00  1.00000000E+00  1.00000000E+00  0.00000000E+00
  0.00000000E+00  0.00000000E+00  0.00000000E+00  0.00000000E+00  0.00000000E+00
  0.00000000E+00  3.54608874E-02  2.37450915E-01  8.20457708E-01  1.00000000E+00
  1.00000000E+00  1.00000000E+00  0.00000000E+00  0.00000000E+00  0.00000000E+00
  0.00000000E+00  0.00000000E+00  0.00000000E+00  0.00000000E+00  3.54608874E-02
  2.37450915E-01  8.20457708E-01  1.00000000E+00  1.00000000E+00  1.00000000E+00
  0.00000000E+00  0.00000000E+00  0.00000000E+00  0.00000000E+00  0.00000000E+00
  0.00000000E+00  0.00000000E+00  0.00000000E+00
Coordinates of each shell                  R   N=         207
  2.28138525E+00  1.31738563E+00 -1.13383567E-08  2.28138525E+00  1.31738563E+00
 -1.13383567E-08  2.28138525E+00  1.31738563E+00 -1.13383567E-08  2.28138525E+00
  1.31738563E+00 -1.13383567E-08  2.28138525E+00  1.31738563E+00 -1.13383567E-08
  2.28138525E+00  1.31738563E+00 -1.13383567E-08  2.26813258E+00 -1.30976979E+00
  1.51178090E-08  2.26813258E+00 -1.30976979E+00  1.51178090E-08  2.26813258E+00
 -1.30976979E+00  1.51178090E-08  2.26813258E+00 -1.30976979E+00  1.51178090E-08
  2.26813258E+00 -1.30976979E+00  1.51178090E-08  2.26813258E+00 -1.30976979E+00
  1.51178090E-08  1.56599714E-04 -2.60279379E+00  0.00000000E+00  1.56599714E-04
 -2.60279379E+00  0.00000000E+00  1.56599714E-04 -2.60279379E+00  0.00000000E+00
  1.56599714E-04 -2.60279379E+00  0.00000000E+00  1.56599714E-04 -2.60279379E+00
  0.00000000E+00  1.56599714E-04 -2.60279379E+00  0.00000000E+00 -2.26964510E+00
 -1.28630458E+00 -1.13383567E-08 -2.26964510E+00 -1.28630458E+00 -1.13383567E-08
 -2.26964510E+00 -1.28630458E+00 -1.13383567E-08 -2.26964510E+00 -1.28630458E+00
 -1.13383567E-08 -2.26964510E+00 -1.28630458E+00 -1.13383567E-08 -2.26964510E+00
 -1.28630458E+00 -1.13383567E-08 -2.30176018E+00  1.32570531E+00  1.88972612E-09
 -2.30176018E+00  1.32570531E+00  1.88972612E-09 -2.30176018E+00  1.32570531E+00
  1.88972612E-09 -2.30176018E+00  1.32570531E+00  1.88972612E-09 -2.30176018E+00
  1.32570531E+00  1.88972612E-09 -2.30176018E+00  1.32570531E+00  1.88972612E-09
 -5.91956520E-03  2.58029311E+00  9.44863062E-09 -5.91956520E-03  2.58029311E+00
  9.44863062E-09 -5.91956520E-03  2.58029311E+00  9.44863062E-09 -5.91956520E-03
  2.58029311E+00  9.44863062E-09 -5.91956520E-03  2.58029311E+00  9.44863062E-09
 -5.91956520E-03  2.58029311E+00  9.44863062E-09  4.03325941E+00  2.37520712E+00
 -1.70075351E-08  4.03325941E+00  2.37520712E+00 -1.70075351E-08  4.03325941E+00
  2.37520712E+00 -1.70075351E-08  4.03325941E+00  2.37520712E+00 -1.70075351E-08
  4.03325941E+00  2.37520712E+00 -1.70075351E-08  4.01480202E+00 -2.37920320E+00
  1.88972612E-08  4.01480202E+00 -2.37920320E+00  1.88972612E-08  4.01480202E+00
 -2.37920320E+00  1.88972612E-08  4.01480202E+00 -2.37920320E+00  1.88972612E-08
  4.01480202E+00 -2.37920320E+00  1.88972612E-08 -3.73332725E-02 -5.12573742E+00
 -1.13383567E-08 -3.73332725E-02 -5.12573742E+00 -1.13383567E-08 -3.73332725E-02
 -5.12573742E+00 -1.13383567E-08 -3.73332725E-02 -5.12573742E+00 -1.13383567E-08
 -3.73332725E-02 -5.12573742E+00 -1.13383567E-08 -3.73332725E-02 -5.12573742E+00
 -1.13383567E-08 -4.43722106E+00 -2.56679340E+00 -3.77945225E-09 -4.43722106E+00
 -2.56679340E+00 -3.77945225E-09 -4.43722106E+00 -2.56679340E+00 -3.77945225E-09
 -4.43722106E+00 -2.56679340E+00 -3.77945225E-09 -4.43722106E+00 -2.56679340E+00
 -3.77945225E-09 -4.43722106E+00 -2.56679340E+00 -3.77945225E-09 -1.78610545E-02
  5.11299763E+00 -3.77945225E-09 -1.78610545E-02  5.11299763E+00 -3.77945225E-09
 -1.78610545E-02  5.11299763E+00 -3.77945225E-09 -1.78610545E-02  5.11299763E+00
 -3.77945225E-09 -1.78610545E-02  5.11299763E+00 -3.77945225E-09 -1.78610545E-02
  5.11299763E+00 -3.77945225E-09 -4.07586414E+00  2.34566991E+00  1.13383567E-08
 -4.07586414E+00  2.34566991E+00  1.13383567E-08 -4.07586414E+00  2.34566991E+00
  1.13383567E-08 -4.07586414E+00  2.34566991E+00  1.13383567E-08 -4.07586414E+00
  2.34566991E+00  1.13383567E-08
Num ILSW                                   I              100
ILSW                                       I   N=         100
           0           0           0           0           2           0
           0           0           0           0        1009          -1
           5           0           0           0           0           0
           0           0           0           0           0           0
           1           1           0           0           0           0
           0           0      100000           0          -1           0
           0           0           0           0           0           0
           0           0           0           1           0           0
           0 -2000000000           1           0           0           0
           0           0           4          52           0           0
           0           0          13           0           0           0
           0           0           0          12           0           1
           0           0           0           0           0           0
           0           0           0           0           0           0
           0           0           0           0           0           0
           0           0           0           0           0           0
           0           0           0           0
Num RLSW                                   I               52
RLSW                                       R   N=          52
  7.50000000E-01  7.50000000E-01  1.00000000E+00  1.00000000E+00  2.50000000E-01
  0.00000000E+00  0.00000000E+00  1.00000000E+00  0.00000000E+00  0.00000000E+00
  0.00000000E+00  0.00000000E+00  1.00000000E+00  0.00000000E+00  0.00000000E+00
  0.00000000E+00  0.00000000E+00  1.00000000E+00  0.00000000E+00  0.00000000E+00
  0.00000000E+00  0.00000000E+00  1.00000000E+00  0.00000000E+00  0.00000000E+00
  0.00000000E+00  0.00000000E+00  1.00000000E+00  0.00000000E+00  0.00000000E+00
  0.00000000E+00  0.00000000E+00  1.00000000E+00  0.00000000E+00  0.00000000E+00
  0.00000000E+00  0.00000000E+00  0.00000000E+00  1.00000000E+00  1.00000000E+00
  0.00000000E+00  1.00000000E+00  0.00000000E+00  0.00000000E+00  0.00000000E+00
  0.00000000E+00  0.00000000E+00  0.00000000E+00  0.00000000E+00  0.00000000E+00
  0.00000000E+00  0.00000000E+00
MxBond                                     I                3
NBond                                      I   N=          12
           3           3           3           3           3           3
           1           1           1           1           1           1
IBond                                      I   N=          36
           2           6           7           1           3           8
           2           4           9           3           5          10
           4           6          12           1           5          11
           1           0           0           2           0           0
           3           0           0           4           0           0
           6           0           0           5           0           0
RBond                                      R   N=          36
  1.50000000E+00  1.50000000E+00  1.00000000E+00  1.50000000E+00  1.50000000E+00
  1.00000000E+00  1.50000000E+00  1.50000000E+00  1.00000000E+00  1.50000000E+00
  1.50000000E+00  1.00000000E+00  1.50000000E+00  1.50000000E+00  1.00000000E+00
  1.50000000E+00  1.50000000E+00  1.00000000E+00  1.00000000E+00  0.00000000E+00
  0.00000000E+00  1.00000000E+00  0.00000000E+00  0.00000000E+00  1.00000000E+00
  0.00000000E+00  0.00000000E+00  1.00000000E+00  0.00000000E+00  0.00000000E+00
  1.00000000E+00  0.00000000E+00  0.00000000E+00  1.00000000E+00  0.00000000E+00
  0.00000000E+00
Virial Ratio                               R      2.002912764864230E+00
SCF Energy                                 R     -5.295488369795255E+02
Total Energy                               R     -5.295488369795255E+02
RMS Density                                R      2.000515280733991E-09
Job Status                                 I                1
Nuclear derivative order                   I                0
External E-field                           R   N=          35
  0.00000000E+00  0.00000000E+00  0.00000000E+00  0.00000000E+00  0.00000000E+00
  0.00000000E+00  0.00000000E+00  0.00000000E+00  0.00000000E+00  0.00000000E+00
  0.00000000E+00  0.00000000E+00  0.00000000E+00  0.00000000E+00  0.00000000E+00
  0.00000000E+00  0.00000000E+00  0.00000000E+00  0.00000000E+00  0.00000000E+00
  0.00000000E+00  0.00000000E+00  0.00000000E+00  0.00000000E+00  0.00000000E+00
  0.00000000E+00  0.00000000E+00  0.00000000E+00  0.00000000E+00  0.00000000E+00
  0.00000000E+00  0.00000000E+00  0.00000000E+00  0.00000000E+00  0.00000000E+00
IOpCl                                      I                0
IROHF                                      I                0
Alpha Orbital Energies                     R   N=         219
 -2.48064636E+01 -2.48021718E+01 -2.47988164E+01 -1.03420342E+01 -1.03363965E+01
 -1.03342240E+01 -1.02646399E+01 -1.02615429E+01 -1.02583857E+01 -1.29740315E+00
 -1.28374310E+00 -1.28255070E+00 -9.27280559E-01 -8.16529396E-01 -8.01997706E-01
 -6.91572649E-01 -6.73116098E-01 -6.11974730E-01 -5.87152601E-01 -5.77270960E-01
 -5.44990311E-01 -5.30412007E-01 -5.05732207E-01 -4.93350447E-01 -4.90469055E-01
 -4.87447681E-01 -4.75998827E-01 -4.41033979E-01 -4.13233768E-01 -3.96855948E-01
 -3.89488185E-01 -2.97869097E-01 -2.73756370E-01 -3.86065766E-02 -1.63821813E-02
  2.49619451E-03  1.09853078E-02  1.87112259E-02  3.09658487E-02  5.21433793E-02
  6.06139840E-02  7.67649300E-02  8.58694611E-02  8.59379084E-02  9.57548844E-02
  1.05631770E-01  1.12217890E-01  1.20500540E-01  1.28702314E-01  1.30004506E-01
  1.32928687E-01  1.37705601E-01  1.43721732E-01  1.48293979E-01  1.49178175E-01
  1.52777061E-01  1.60745398E-01  1.70708602E-01  1.87669910E-01  1.96611627E-01
  2.07190020E-01  2.08423298E-01  2.15983372E-01  2.35575050E-01  2.53682846E-01
  2.67892824E-01  2.73459588E-01  2.75585847E-01  2.86571483E-01  2.98256965E-01
  3.12985412E-01  3.38008403E-01  3.43622448E-01  3.51282825E-01  3.53043262E-01
  3.68021038E-01  3.85803471E-01  3.89967160E-01  3.90956624E-01  4.08332953E-01
  4.17039935E-01  4.33000384E-01  4.42560450E-01  4.54497865E-01  5.05777591E-01
  5.08417000E-01  5.19518277E-01  5.37127250E-01  5.55750926E-01  5.65851660E-01
  5.72188350E-01  5.78757976E-01  5.83969399E-01  6.07963294E-01  6.13808672E-01
  6.25674947E-01  6.76328112E-01  6.91266121E-01  7.18768573E-01  7.33597308E-01
  7.67815475E-01  7.93353628E-01  8.10512345E-01  8.38586768E-01  8.52259378E-01
  8.63816986E-01  8.77090533E-01  9.14195306E-01  9.27200685E-01  9.61306172E-01
  9.67004559E-01  9.92291865E-01  1.00085353E+00  1.01857547E+00  1.05472651E+00
  1.06770839E+00  1.13216016E+00  1.14445768E+00  1.19374102E+00  1.26209673E+00
  1.33169832E+00  1.39867884E+00  1.42081629E+00  1.42944576E+00  1.43841999E+00
  1.44223697E+00  1.45276363E+00  1.46300895E+00  1.50495916E+00  1.53730318E+00
  1.53958301E+00  1.54254469E+00  1.55236377E+00  1.56943349E+00  1.59433957E+00
  1.60447422E+00  1.65021647E+00  1.67912754E+00  1.68972026E+00  1.73936510E+00
  1.80816261E+00  1.84566257E+00  1.88186109E+00  1.88935340E+00  1.91965876E+00
  1.93669690E+00  1.96377073E+00  1.99720281E+00  2.00373737E+00  2.04269063E+00
  2.05781174E+00  2.07588384E+00  2.12402769E+00  2.15217433E+00  2.15974923E+00
  2.24081586E+00  2.27892817E+00  2.29962099E+00  2.40869089E+00  2.47176186E+00
  2.58212585E+00  2.61696170E+00  2.64851839E+00  2.69250668E+00  2.71752351E+00
  2.73126724E+00  2.74016731E+00  2.74757040E+00  2.77674836E+00  2.85464498E+00
  2.86411281E+00  2.87967733E+00  3.07672835E+00  3.11184786E+00  3.14287861E+00
  3.16991347E+00  3.24748703E+00  3.34955637E+00  3.40572693E+00  3.52895002E+00
  3.63396881E+00  3.75474375E+00  3.76747923E+00  3.77671067E+00  3.78799331E+00
  3.79323768E+00  3.84702017E+00  3.86223976E+00  3.91258501E+00  3.97043388E+00
  3.99690789E+00  4.02922466E+00  4.05240440E+00  4.10537960E+00  4.13827313E+00
  4.16310820E+00  4.22105709E+00  4.80678011E+00  4.86051816E+00  4.89098241E+00
  4.96098873E+00  6.32433887E+00  6.35793114E+00  6.38346144E+00  6.43353892E+00
  6.48102342E+00  6.53170909E+00  6.68525346E+00  6.82011225E+00  6.88862134E+00
  2.35777178E+01  2.39503600E+01  2.40163745E+01  2.41345951E+01  2.41813403E+01
  2.42718933E+01  6.69175897E+01  6.69446681E+01  6.69694932E+01
Alpha MO coefficients                      R   N=       47961
 -3.81869597E-06  1.54752013E-05 -2.07557031E-06  4.68305795E-06 -2.86911455E-13
 -1.60732267E-04  3.20777679E-05 -1.68185686E-05  7.71557357E-13  3.23428894E-03
 -1.65792944E-03 -1.58035534E-03  1.43127888E-11  2.20514055E-02 -3.22988366E-03
 -1.83968877E-03  5.37649932E-11 -1.55731669E-05 -2.10201735E-12 -1.51202097E-12
  1.43237642E-06  1.90067556E-05 -3.27849594E-07  1.37311432E-06 -6.36925837E-05
 -3.34067393E-06 -4.26009563E-13  1.06784205E-04  3.41940305E-04  3.81071132E-05
  1.90514730E-12 -6.78069520E-03  2.85350700E-03 -1.20152668E-03  3.93393650E-11
 -1.06552103E-02  1.03590982E-03 -3.60363220E-03  1.53110388E-11  1.85845741E-05
 -2.53468045E-12  5.95881896E-13 -6.17665543E-05 -4.41433714E-05 -6.10230974E-06
  2.70975024E-05 -3.57436332E-05 -2.01296769E-05 -2.74763123E-13 -2.65071700E-04
  1.68096084E-04  5.01751953E-05  1.43443041E-12  7.28486087E-03  6.95183860E-04
  7.19429954E-03 -2.70113520E-12  2.51013345E-02 -6.78890274E-03  3.89029845E-03
 -3.70982649E-12 -4.23415053E-05  4.20902403E-13 -1.57897606E-12 -9.08220980E-05
  1.92943398E-05  2.46207155E-05 -1.04790324E-04 -1.23849349E-04 -7.32149926E-05
  3.88893837E-13  7.36689018E-04 -1.03433755E-04 -6.11710206E-05  1.11543711E-12
 -5.04458836E-03 -9.13207564E-03 -4.97820431E-03 -1.74477664E-11 -4.74144333E-02
 -6.89828434E-03 -6.68677331E-04 -9.73710544E-11 -1.29847095E-04 -6.50506998E-12
 -2.92135050E-12  9.03591083E-06 -6.46646992E-07 -6.31342858E-06  2.78907026E-05
 -4.74963835E-05 -4.43455883E-06 -1.21422055E-13 -2.97920271E-04  1.98870756E-04
  1.30559579E-05  6.40956655E-13  7.91620500E-03  6.09457817E-03 -1.45060040E-03
 -2.16974586E-11  3.60840571E-02  8.84718170E-03 -6.26447953E-03 -1.18031411E-12
 -4.78850932E-05 -1.87310153E-12  4.29611911E-13  6.31972615E-05 -8.15066149E-05
 -5.88016803E-07  1.82527590E-06 -2.52212554E-05 -4.78917392E-05  5.79521365E-13