 Entering Gaussian System, Link 0=g16
 Initial command:
 /sw/cluster/pub/apps//g16/l1.exe "/data/natrosa/28468/Gau-3034.inp" -scrdir="/data/natrosa/28468/"
 Entering Link 1 = /sw/cluster/pub/apps//g16/l1.exe PID=      3035.
  
 Copyright (c) 1988,1990,1992,1993,1995,1998,2003,2009,2016,
            Gaussian, Inc.  All Rights Reserved.
  
 This is part of the Gaussian(R) 16 program.  It is based on
 the Gaussian(R) 09 system (copyright 2009, Gaussian, Inc.),
 the Gaussian(R) 03 system (copyright 2003, Gaussian, Inc.),
 the Gaussian(R) 98 system (copyright 1998, Gaussian, Inc.),
 the Gaussian(R) 94 system (copyright 1995, Gaussian, Inc.),
 the Gaussian 92(TM) system (copyright 1992, Gaussian, Inc.),
 the Gaussian 90(TM) system (copyright 1990, Gaussian, Inc.),
 the Gaussian 88(TM) system (copyright 1988, Gaussian, Inc.),
 the Gaussian 86(TM) system (copyright 1986, Carnegie Mellon
 University), and the Gaussian 82(TM) system (copyright 1983,
 Carnegie Mellon University). Gaussian is a federally registered
 trademark of Gaussian, Inc.
  
 This software contains proprietary and confidential information,
 including trade secrets, belonging to Gaussian, Inc.
  
 This software is provided under written license and may be
 used, copied, transmitted, or stored only in accord with that
 written license.
  
 The following legend is applicable only to US Government
 contracts under FAR:
  
                    RESTRICTED RIGHTS LEGEND
  
 Use, reproduction and disclosure by the US Government is
 subject to restrictions as set forth in subparagraphs (a)
 and (c) of the Commercial Computer Software - Restricted
 Rights clause in FAR 52.227-19.
  
 Gaussian, Inc.
 340 Quinnipiac St., Bldg. 40, Wallingford CT 06492
  
  
 ---------------------------------------------------------------
 Warning -- This program may not be used in any manner that
 competes with the business of Gaussian, Inc. or will provide
 assistance to any competitor of Gaussian, Inc.  The licensee
 of this program is prohibited from giving any competitor of
 Gaussian, Inc. access to this program.  By using this program,
 the user acknowledges that Gaussian, Inc. is engaged in the
 business of creating and licensing software in the field of
 computational chemistry and represents and warrants to the
 licensee that it is not a competitor of Gaussian, Inc. and that
 it will not use this program in any manner prohibited above.
 ---------------------------------------------------------------
  

 Cite this work as:
 Gaussian 16, Revision A.03,
 M. J. Frisch, G. W. Trucks, H. B. Schlegel, G. E. Scuseria, 
 M. A. Robb, J. R. Cheeseman, G. Scalmani, V. Barone, 
 G. A. Petersson, H. Nakatsuji, X. Li, M. Caricato, A. V. Marenich, 
 J. Bloino, B. G. Janesko, R. Gomperts, B. Mennucci, H. P. Hratchian, 
 J. V. Ortiz, A. F. Izmaylov, J. L. Sonnenberg, D. Williams-Young, 
 F. Ding, F. Lipparini, F. Egidi, J. Goings, B. Peng, A. Petrone, 
 T. Henderson, D. Ranasinghe, V. G. Zakrzewski, J. Gao, N. Rega, 
 G. Zheng, W. Liang, M. Hada, M. Ehara, K. Toyota, R. Fukuda, 
 J. Hasegawa, M. Ishida, T. Nakajima, Y. Honda, O. Kitao, H. Nakai, 
 T. Vreven, K. Throssell, J. A. Montgomery, Jr., J. E. Peralta, 
 F. Ogliaro, M. J. Bearpark, J. J. Heyd, E. N. Brothers, K. N. Kudin, 
 V. N. Staroverov, T. A. Keith, R. Kobayashi, J. Normand, 
 K. Raghavachari, A. P. Rendell, J. C. Burant, S. S. Iyengar, 
 J. Tomasi, M. Cossi, J. M. Millam, M. Klene, C. Adamo, R. Cammi, 
 J. W. Ochterski, R. L. Martin, K. Morokuma, O. Farkas, 
 J. B. Foresman, and D. J. Fox, Gaussian, Inc., Wallingford CT, 2016.
 
 ******************************************
 Gaussian 16:  ES64L-G16RevA.03 25-Dec-2016
                29-Jan-2025 
 ******************************************
 %chk=1-2-4-TFB-ANI.chk
 --------------------------------------------------------
 #p opt freq PBE1PBE/6-311++G(d,p) density=current nosymm
 --------------------------------------------------------
 1/18=20,19=15,26=3,38=1/1,3;
 2/9=110,12=2,15=1,17=6,18=5,40=1/2;
 3/5=4,6=6,7=1111,11=2,25=1,30=1,71=1,74=-13/1,2,3;
 4//1;
 5/5=2,38=5/2;
 6/7=2,8=2,9=2,10=2,22=-1,28=1/1;
 7/30=1/1,2,3,16;
 1/18=20,19=15,26=3/3(2);
 2/9=110,15=1/2;
 99//99;
 2/9=110,15=1/2;
 3/5=4,6=6,7=1111,11=2,25=1,30=1,71=1,74=-13/1,2,3;
 4/5=5,16=3,69=1/1;
 5/5=2,38=5/2;
 7/30=1/1,2,3,16;
 1/18=20,19=15,26=3/3(-5);
 2/9=110,15=1/2;
 6/7=2,8=2,9=2,10=2,19=2,22=-1,28=1/1;
 99/9=1/99;
 Leave Link    1 at Wed Jan 29 15:56:29 2025, MaxMem=           0 cpu:               0.0 elap:               0.0
 (Enter /sw/cluster/pub/apps//g16/l101.exe)
 ------------
 1 2 4-DFB SP
 ------------
 Symbolic Z-matrix:
 Charge = -1 Multiplicity = 2
 C                     1.20726   0.69713  0. 
 C                     1.20024  -0.6931    0. 
 C                     0.00008  -1.37734   0. 
 C                    -1.20104  -0.68068  0. 
 C                    -1.21804   0.70153   0. 
 C                    -0.00313   1.36543   0. 
 H                     2.13431   1.25691  0. 
 H                     2.12454  -1.25902   0. 
 F                    -0.01976  -2.71242  0. 
 F                    -2.34808  -1.35829  0. 
 F                    -0.00945   2.70568  0. 
 H                    -2.15685   1.24128   0. 
 
 ITRead=  0  0  0  0  0  0  0  0  0  0  0  0
 MicOpt= -1 -1 -1 -1 -1 -1 -1 -1 -1 -1 -1 -1
 NAtoms=     12 NQM=       12 NQMF=       0 NMMI=      0 NMMIF=      0
                NMic=       0 NMicF=      0.
                    Isotopes and Nuclear Properties:
 (Nuclear quadrupole moments (NQMom) in fm**2, nuclear magnetic moments (NMagM)
  in nuclear magnetons)

  Atom         1           2           3           4           5           6           7           8           9          10
 IAtWgt=          12          12          12          12          12          12           1           1          19          19
 AtmWgt=  12.0000000  12.0000000  12.0000000  12.0000000  12.0000000  12.0000000   1.0078250   1.0078250  18.9984032  18.9984032
 NucSpn=           0           0           0           0           0           0           1           1           1           1
 AtZEff=  -0.0000000  -0.0000000  -0.0000000  -0.0000000  -0.0000000  -0.0000000  -0.0000000  -0.0000000  -0.0000000  -0.0000000
 NQMom=    0.0000000   0.0000000   0.0000000   0.0000000   0.0000000   0.0000000   0.0000000   0.0000000   0.0000000   0.0000000
 NMagM=    0.0000000   0.0000000   0.0000000   0.0000000   0.0000000   0.0000000   2.7928460   2.7928460   2.6288670   2.6288670
 AtZNuc=   6.0000000   6.0000000   6.0000000   6.0000000   6.0000000   6.0000000   1.0000000   1.0000000   9.0000000   9.0000000

  Atom        11          12
 IAtWgt=          19           1
 AtmWgt=  18.9984032   1.0078250
 NucSpn=           1           1
 AtZEff=  -0.0000000  -0.0000000
 NQMom=    0.0000000   0.0000000
 NMagM=    2.6288670   2.7928460
 AtZNuc=   9.0000000   1.0000000
 Leave Link  101 at Wed Jan 29 15:56:29 2025, MaxMem=   104857600 cpu:               0.0 elap:               0.0
 (Enter /sw/cluster/pub/apps//g16/l103.exe)

 GradGradGradGradGradGradGradGradGradGradGradGradGradGradGradGradGradGrad
 Berny optimization.
 Initialization pass.
                           ----------------------------
                           !    Initial Parameters    !
                           ! (Angstroms and Degrees)  !
 --------------------------                            --------------------------
 ! Name  Definition              Value          Derivative Info.                !
 --------------------------------------------------------------------------------
 ! R1    R(1,2)                  1.3902         estimate D2E/DX2                !
 ! R2    R(1,6)                  1.3826         estimate D2E/DX2                !
 ! R3    R(1,7)                  1.0829         estimate D2E/DX2                !
 ! R4    R(2,3)                  1.3815         estimate D2E/DX2                !
 ! R5    R(2,8)                  1.0838         estimate D2E/DX2                !
 ! R6    R(3,4)                  1.3885         estimate D2E/DX2                !
 ! R7    R(3,9)                  1.3352         estimate D2E/DX2                !
 ! R8    R(4,5)                  1.3823         estimate D2E/DX2                !
 ! R9    R(4,10)                 1.3322         estimate D2E/DX2                !
 ! R10   R(5,6)                  1.3845         estimate D2E/DX2                !
 ! R11   R(5,12)                 1.0829         estimate D2E/DX2                !
 ! R12   R(6,11)                 1.3403         estimate D2E/DX2                !
 ! A1    A(2,1,6)              118.6157         estimate D2E/DX2                !
 ! A2    A(2,1,7)              121.4136         estimate D2E/DX2                !
 ! A3    A(6,1,7)              119.9707         estimate D2E/DX2                !
 ! A4    A(1,2,3)              119.9775         estimate D2E/DX2                !
 ! A5    A(1,2,8)              121.1889         estimate D2E/DX2                !
 ! A6    A(3,2,8)              118.8337         estimate D2E/DX2                !
 ! A7    A(2,3,4)              120.1978         estimate D2E/DX2                !
 ! A8    A(2,3,9)              120.5398         estimate D2E/DX2                !
 ! A9    A(4,3,9)              119.2625         estimate D2E/DX2                !
 ! A10   A(3,4,5)              120.8182         estimate D2E/DX2                !
 ! A11   A(3,4,10)             119.3138         estimate D2E/DX2                !
 ! A12   A(5,4,10)             119.8679         estimate D2E/DX2                !
 ! A13   A(4,5,6)              117.9505         estimate D2E/DX2                !
 ! A14   A(4,5,12)             120.5998         estimate D2E/DX2                !
 ! A15   A(6,5,12)             121.4497         estimate D2E/DX2                !
 ! A16   A(1,6,5)              122.4404         estimate D2E/DX2                !
 ! A17   A(1,6,11)             119.1749         estimate D2E/DX2                !
 ! A18   A(5,6,11)             118.3847         estimate D2E/DX2                !
 ! D1    D(6,1,2,3)              0.0            estimate D2E/DX2                !
 ! D2    D(6,1,2,8)            180.0            estimate D2E/DX2                !
 ! D3    D(7,1,2,3)           -180.0            estimate D2E/DX2                !
 ! D4    D(7,1,2,8)              0.0            estimate D2E/DX2                !
 ! D5    D(2,1,6,5)              0.0            estimate D2E/DX2                !
 ! D6    D(2,1,6,11)           180.0            estimate D2E/DX2                !
 ! D7    D(7,1,6,5)            180.0            estimate D2E/DX2                !
 ! D8    D(7,1,6,11)             0.0            estimate D2E/DX2                !
 ! D9    D(1,2,3,4)              0.0            estimate D2E/DX2                !
 ! D10   D(1,2,3,9)            180.0            estimate D2E/DX2                !
 ! D11   D(8,2,3,4)            180.0            estimate D2E/DX2                !
 ! D12   D(8,2,3,9)              0.0            estimate D2E/DX2                !
 ! D13   D(2,3,4,5)              0.0            estimate D2E/DX2                !
 ! D14   D(2,3,4,10)           180.0            estimate D2E/DX2                !
 ! D15   D(9,3,4,5)            180.0            estimate D2E/DX2                !
 ! D16   D(9,3,4,10)             0.0            estimate D2E/DX2                !
 ! D17   D(3,4,5,6)              0.0            estimate D2E/DX2                !
 ! D18   D(3,4,5,12)          -180.0            estimate D2E/DX2                !
 ! D19   D(10,4,5,6)           180.0            estimate D2E/DX2                !
 ! D20   D(10,4,5,12)            0.0            estimate D2E/DX2                !
 ! D21   D(4,5,6,1)              0.0            estimate D2E/DX2                !
 ! D22   D(4,5,6,11)           180.0            estimate D2E/DX2                !
 ! D23   D(12,5,6,1)           180.0            estimate D2E/DX2                !
 ! D24   D(12,5,6,11)            0.0            estimate D2E/DX2                !
 --------------------------------------------------------------------------------
 Trust Radius=3.00D-01 FncErr=1.00D-07 GrdErr=1.00D-06 EigMax=2.50D+02 EigMin=1.00D-04
 Number of steps in this run=     64 maximum allowed number of steps=    100.
 GradGradGradGradGradGradGradGradGradGradGradGradGradGradGradGradGradGrad

 Leave Link  103 at Wed Jan 29 15:56:29 2025, MaxMem=   104857600 cpu:               0.0 elap:               0.0
 (Enter /sw/cluster/pub/apps//g16/l202.exe)
                          Input orientation:                          
 ---------------------------------------------------------------------
 Center     Atomic      Atomic             Coordinates (Angstroms)
 Number     Number       Type             X           Y           Z
 ---------------------------------------------------------------------
      1          6           0        1.207257    0.697130   -0.000000
      2          6           0        1.200244   -0.693100    0.000000
      3          6           0        0.000083   -1.377339    0.000000
      4          6           0       -1.201044   -0.680683   -0.000000
      5          6           0       -1.218039    0.701533    0.000000
      6          6           0       -0.003132    1.365432    0.000000
      7          1           0        2.134309    1.256905   -0.000000
      8          1           0        2.124542   -1.259020    0.000000
      9          9           0       -0.019756   -2.712423   -0.000000
     10          9           0       -2.348076   -1.358289   -0.000000
     11          9           0       -0.009452    2.705682   -0.000000
     12          1           0       -2.156854    1.241275    0.000000
 ---------------------------------------------------------------------
                    Distance matrix (angstroms):
                    1          2          3          4          5
     1  C    0.000000
     2  C    1.390248   0.000000
     3  C    2.400145   1.381510   0.000000
     4  C    2.774579   2.401321   1.388538   0.000000
     5  C    2.425300   2.791612   2.409467   1.382321   0.000000
     6  C    1.382632   2.384465   2.742773   2.370987   1.384471
     7  H    1.082947   2.162175   3.390305   3.857309   3.398040
     8  H    2.160541   1.083786   2.127751   3.375500   3.875128
     9  F    3.623620   2.359251   1.335232   2.350194   3.618146
    10  F    4.106719   3.610132   2.348236   1.332228   2.349436
    11  F    2.348331   3.607642   4.083032   3.589897   2.340362
    12  H    3.407835   3.874522   3.392568   2.146508   1.082911
                    6          7          8          9         10
     6  C    0.000000
     7  H    2.140195   0.000000
     8  H    3.378572   2.515945   0.000000
     9  F    4.077890   4.516145   2.590443   0.000000
    10  F    3.594081   5.189510   4.473719   2.693466   0.000000
    11  F    1.340264   2.587405   4.502531   5.418115   4.688819
    12  H    2.157298   4.291192   4.958007   4.494321   2.606587
                   11         12
    11  F    0.000000
    12  H    2.599197   0.000000
 Symmetry turned off by external request.
 Stoichiometry    C6H3F3(1-,2)
 Framework group  CS[SG(C6H3F3)]
 Deg. of freedom    21
 Full point group                 CS      NOp   2
 Rotational constants (GHZ):           3.1020610           1.2836622           0.9079457
 Leave Link  202 at Wed Jan 29 15:56:29 2025, MaxMem=   104857600 cpu:               0.0 elap:               0.0
 (Enter /sw/cluster/pub/apps//g16/l301.exe)
 Standard basis: 6-311++G(d,p) (5D, 7F)
 Ernie: Thresh=  0.10000D-02 Tol=  0.10000D-05 Strict=F.
   219 basis functions,   351 primitive gaussians,   228 cartesian basis functions
    34 alpha electrons       33 beta electrons
       nuclear repulsion energy       428.1102534582 Hartrees.
 IExCor= 1009 DFT=T Ex+Corr=PBE1PBE ExCW=0 ScaHFX=  0.250000
 ScaDFX=  0.750000  0.750000  1.000000  1.000000 ScalE2=  1.000000  1.000000
 IRadAn=      5 IRanWt=     -1 IRanGd=            0 ICorTp=0 IEmpDi=  4
 NAtoms=   12 NActive=   12 NUniq=   12 SFac= 1.00D+00 NAtFMM=   60 NAOKFM=F Big=F
 Integral buffers will be    131072 words long.
 Raffenetti 2 integral format.
 Two-electron integral symmetry is turned off.
 Leave Link  301 at Wed Jan 29 15:56:29 2025, MaxMem=   104857600 cpu:               0.0 elap:               0.0
 (Enter /sw/cluster/pub/apps//g16/l302.exe)
 NPDir=0 NMtPBC=     1 NCelOv=     1 NCel=       1 NClECP=     1 NCelD=      1
         NCelK=      1 NCelE2=     1 NClLst=     1 CellRange=     0.0.
 One-electron integrals computed using PRISM.
 NBasis=   219 RedAO= T EigKep=  2.23D-06  NBF=   219
 NBsUse=   219 1.00D-06 EigRej= -1.00D+00 NBFU=   219
 Precomputing XC quadrature grid using
 IXCGrd= 4 IRadAn=           5 IRanWt=          -1 IRanGd=           0 AccXCQ= 0.00D+00.
 Generated NRdTot=       0 NPtTot=           0 NUsed=           0 NTot=          32
 NSgBfM=   228   228   228   228   228 MxSgAt=    12 MxSgA2=    12.
 Leave Link  302 at Wed Jan 29 15:56:29 2025, MaxMem=   104857600 cpu:               0.1 elap:               0.1
 (Enter /sw/cluster/pub/apps//g16/l303.exe)
 DipDrv:  MaxL=1.
 Leave Link  303 at Wed Jan 29 15:56:29 2025, MaxMem=   104857600 cpu:               0.0 elap:               0.0
 (Enter /sw/cluster/pub/apps//g16/l401.exe)
 ExpMin= 3.60D-02 ExpMax= 1.14D+04 ExpMxC= 1.72D+03 IAcc=3 IRadAn=         5 AccDes= 0.00D+00
 Harris functional with IExCor= 1009 and IRadAn=       5 diagonalized for initial guess.
 HarFok:  IExCor= 1009 AccDes= 0.00D+00 IRadAn=         5 IDoV= 1 UseB2=F ITyADJ=14
 ICtDFT=  3500011 ScaDFX=  1.000000  1.000000  1.000000  1.000000
 FoFCou: FMM=F IPFlag=           0 FMFlag=      100000 FMFlg1=           0
         NFxFlg=           0 DoJE=T BraDBF=F KetDBF=T FulRan=T
         wScrn=  0.000000 ICntrl=       500 IOpCl=  0 I1Cent=   200000004 NGrid=           0
         NMat0=    1 NMatS0=      1 NMatT0=    0 NMatD0=    1 NMtDS0=    0 NMtDT0=    0
 Symmetry not used in FoFCou.
 Harris En= -529.748399949598    
 JPrj=0 DoOrth=F DoCkMO=F.
 Initial guess <Sx>= 0.0000 <Sy>= 0.0000 <Sz>= 0.5000 <S**2>= 0.7500 S= 0.5000
 Leave Link  401 at Wed Jan 29 15:56:30 2025, MaxMem=   104857600 cpu:               1.3 elap:               1.3
 (Enter /sw/cluster/pub/apps//g16/l502.exe)
 Two-electron integral symmetry not used.
 UHF open shell SCF:
 Using DIIS extrapolation, IDIIS=  1040.
 NGot=   104857600 LenX=   104750604 LenY=   104698179
 Requested convergence on RMS density matrix=1.00D-08 within 128 cycles.
 Requested convergence on MAX density matrix=1.00D-06.
 Requested convergence on             energy=1.00D-06.
 No special actions if energy rises.
 Fock matrices will be formed incrementally for  20 cycles.

 Cycle   1  Pass 1  IDiag  1:
 FoFJK:  IHMeth= 1 ICntrl=       0 DoSepK=F KAlg= 0 I1Cent=           0 FoldK=F
 IRaf= 950000000 NMat=       1 IRICut=       1 DoRegI=T DoRafI=F ISym2E= 0 IDoP0=0 IntGTp=1.
 FoFCou: FMM=F IPFlag=           0 FMFlag=      100000 FMFlg1=           0
         NFxFlg=           0 DoJE=F BraDBF=F KetDBF=F FulRan=T
         wScrn=  0.000000 ICntrl=         0 IOpCl=  1 I1Cent=           0 NGrid=           0
         NMat0=    1 NMatS0=      1 NMatT0=    0 NMatD0=    1 NMtDS0=    0 NMtDT0=    0
 Symmetry not used in FoFCou.
 E= -529.261267858483    
 DIIS: error= 3.18D-02 at cycle   1 NSaved=   1.
 NSaved= 1 IEnMin= 1 EnMin= -529.261267858483     IErMin= 1 ErrMin= 3.18D-02
 ErrMax= 3.18D-02  0.00D+00 EMaxC= 1.00D-01 BMatC= 1.08D+00 BMatP= 1.08D+00
 IDIUse=3 WtCom= 6.82D-01 WtEn= 3.18D-01
 Coeff-Com:  0.100D+01
 Coeff-En:   0.100D+01
 Coeff:      0.100D+01
 Gap=     0.040 Goal=   None    Shift=    0.000
 Gap=     0.306 Goal=   None    Shift=    0.000
 GapD=    0.040 DampG=0.250 DampE=0.500 DampFc=0.2500 IDamp=-1.
 Damping current iteration by 2.50D-01
 RMSDP=1.18D+01 MaxDP=9.97D+02              OVMax= 9.97D-01

 Cycle   2  Pass 1  IDiag  1:
 RMSU=  2.90D+00    CP:  3.00D+00
 E= -529.366219666554     Delta-E=       -0.104951808071 Rises=F Damp=T
 DIIS: error= 1.53D-02 at cycle   2 NSaved=   2.
 NSaved= 2 IEnMin= 2 EnMin= -529.366219666554     IErMin= 2 ErrMin= 1.53D-02
 ErrMax= 1.53D-02  0.00D+00 EMaxC= 1.00D-01 BMatC= 2.45D-01 BMatP= 1.08D+00
 IDIUse=3 WtCom= 8.47D-01 WtEn= 1.53D-01
 Coeff-Com: -0.670D+00 0.167D+01
 Coeff-En:   0.000D+00 0.100D+01
 Coeff:     -0.568D+00 0.157D+01
 Gap=     0.014 Goal=   None    Shift=    0.000
 Gap=     0.211 Goal=   None    Shift=    0.000
 RMSDP=5.55D+00 MaxDP=4.74D+02 DE=-1.05D-01 OVMax= 2.07D-01

 Cycle   3  Pass 1  IDiag  1:
 RMSU=  9.15D-01    CP:  3.00D+00  2.89D+00
 E= -529.499639672468     Delta-E=       -0.133420005915 Rises=F Damp=F
 DIIS: error= 1.00D-02 at cycle   3 NSaved=   3.
 NSaved= 3 IEnMin= 3 EnMin= -529.499639672468     IErMin= 3 ErrMin= 1.00D-02
 ErrMax= 1.00D-02  0.00D+00 EMaxC= 1.00D-01 BMatC= 6.87D-02 BMatP= 2.45D-01
 IDIUse=3 WtCom= 9.00D-01 WtEn= 1.00D-01
 Coeff-Com: -0.161D+00 0.580D+00 0.580D+00
 Coeff-En:   0.000D+00 0.000D+00 0.100D+01
 Coeff:     -0.145D+00 0.522D+00 0.622D+00
 Gap=    -0.011 Goal=   None    Shift=    0.000
 Gap=     0.239 Goal=   None    Shift=    0.000
 RMSDP=8.47D+00 MaxDP=7.23D+02 DE=-1.33D-01 OVMax= 9.99D-01

 Cycle   4  Pass 1  IDiag  1:
 RMSU=  9.70D-03    CP:  9.62D-01 -8.41D-04  2.73D-03
 E= -529.495866704354     Delta-E=        0.003772968114 Rises=F Damp=F
 DIIS: error= 1.11D-02 at cycle   4 NSaved=   4.
 NSaved= 4 IEnMin= 3 EnMin= -529.499639672468     IErMin= 3 ErrMin= 1.00D-02
 ErrMax= 1.11D-02  0.00D+00 EMaxC= 1.00D-01 BMatC= 7.71D-02 BMatP= 6.87D-02
 IDIUse=2 WtCom= 0.00D+00 WtEn= 1.00D+00
 Coeff-En:   0.000D+00 0.000D+00 0.540D+00 0.460D+00
 Coeff:      0.000D+00 0.000D+00 0.540D+00 0.460D+00
 Gap=     0.002 Goal=   None    Shift=    0.000
 Gap=     0.216 Goal=   None    Shift=    0.000
 RMSDP=3.72D-03 MaxDP=3.65D-01 DE= 3.77D-03 OVMax= 5.81D-02

 Cycle   5  Pass 1  IDiag  1:
 RMSU=  2.71D-03    CP:  9.13D-01 -1.01D-03  2.52D-03  9.26D-01
 E= -529.513662914519     Delta-E=       -0.017796210165 Rises=F Damp=F
 DIIS: error= 6.12D-03 at cycle   5 NSaved=   5.
 NSaved= 5 IEnMin= 5 EnMin= -529.513662914519     IErMin= 5 ErrMin= 6.12D-03
 ErrMax= 6.12D-03  0.00D+00 EMaxC= 1.00D-01 BMatC= 2.38D-02 BMatP= 6.87D-02
 IDIUse=3 WtCom= 9.39D-01 WtEn= 6.12D-02
 Coeff-Com: -0.253D-01 0.575D-01 0.367D+00 0.387D-01 0.562D+00
 Coeff-En:   0.000D+00 0.000D+00 0.125D+00 0.000D+00 0.875D+00
 Coeff:     -0.237D-01 0.539D-01 0.353D+00 0.363D-01 0.581D+00
 Gap=     0.010 Goal=   None    Shift=    0.000
 Gap=     0.207 Goal=   None    Shift=    0.000
 RMSDP=1.11D-03 MaxDP=4.55D-02 DE=-1.78D-02 OVMax= 1.52D-02

 Cycle   6  Pass 1  IDiag  1:
 RMSU=  8.58D-04    CP:  9.22D-01 -1.14D-03  2.58D-03  9.56D-01  1.08D+00
 E= -529.516325588331     Delta-E=       -0.002662673812 Rises=F Damp=F
 DIIS: error= 4.05D-03 at cycle   6 NSaved=   6.
 NSaved= 6 IEnMin= 6 EnMin= -529.516325588331     IErMin= 6 ErrMin= 4.05D-03
 ErrMax= 4.05D-03  0.00D+00 EMaxC= 1.00D-01 BMatC= 1.05D-02 BMatP= 2.38D-02
 IDIUse=3 WtCom= 9.59D-01 WtEn= 4.05D-02
 Coeff-Com: -0.322D-01 0.583D-01 0.193D+00-0.203D+00 0.434D+00 0.550D+00
 Coeff-En:   0.000D+00 0.000D+00 0.000D+00 0.000D+00 0.000D+00 0.100D+01
 Coeff:     -0.309D-01 0.560D-01 0.185D+00-0.195D+00 0.417D+00 0.568D+00
 Gap=     0.014 Goal=   None    Shift=    0.000
 Gap=     0.197 Goal=   None    Shift=    0.000
 RMSDP=1.21D-03 MaxDP=1.06D-01 DE=-2.66D-03 OVMax= 2.16D-02

 Cycle   7  Pass 1  IDiag  1:
 RMSU=  3.17D-04    CP:  9.14D-01 -1.26D-03  2.51D-03  9.42D-01  1.42D+00
                    CP:  1.56D+00
 E= -529.519112014366     Delta-E=       -0.002786426036 Rises=F Damp=F
 DIIS: error= 2.16D-03 at cycle   7 NSaved=   7.
 NSaved= 7 IEnMin= 7 EnMin= -529.519112014366     IErMin= 7 ErrMin= 2.16D-03
 ErrMax= 2.16D-03  0.00D+00 EMaxC= 1.00D-01 BMatC= 2.57D-03 BMatP= 1.05D-02
 IDIUse=3 WtCom= 9.78D-01 WtEn= 2.16D-02
 Coeff-Com: -0.555D-04 0.665D-02 0.390D-01-0.115D+00 0.333D-01-0.369D+00
 Coeff-Com:  0.140D+01
 Coeff-En:   0.000D+00 0.000D+00 0.000D+00 0.000D+00 0.000D+00 0.000D+00
 Coeff-En:   0.100D+01
 Coeff:     -0.543D-04 0.651D-02 0.382D-01-0.113D+00 0.325D-01-0.361D+00
 Coeff:      0.140D+01
 Gap=     0.020 Goal=   None    Shift=    0.000
 Gap=     0.188 Goal=   None    Shift=    0.000
 RMSDP=1.05D-03 MaxDP=7.51D-02 DE=-2.79D-03 OVMax= 1.83D-02

 Cycle   8  Pass 1  IDiag  1:
 RMSU=  2.06D-04    CP:  9.09D-01 -1.40D-03  2.51D-03  9.42D-01  1.67D+00
                    CP:  2.20D+00  1.84D+00
 E= -529.520011693799     Delta-E=       -0.000899679432 Rises=F Damp=F
 DIIS: error= 6.37D-04 at cycle   8 NSaved=   8.
 NSaved= 8 IEnMin= 8 EnMin= -529.520011693799     IErMin= 8 ErrMin= 6.37D-04
 ErrMax= 6.37D-04  0.00D+00 EMaxC= 1.00D-01 BMatC= 2.03D-04 BMatP= 2.57D-03
 IDIUse=3 WtCom= 9.94D-01 WtEn= 6.37D-03
 Coeff-Com:  0.245D-02-0.113D-03 0.674D-02-0.134D-01-0.463D-01-0.409D+00
 Coeff-Com:  0.863D+00 0.597D+00
 Coeff-En:   0.000D+00 0.000D+00 0.000D+00 0.000D+00 0.000D+00 0.000D+00
 Coeff-En:   0.000D+00 0.100D+01
 Coeff:      0.244D-02-0.113D-03 0.670D-02-0.133D-01-0.460D-01-0.406D+00
 Coeff:      0.857D+00 0.599D+00
 Gap=     0.021 Goal=   None    Shift=    0.000
 Gap=     0.186 Goal=   None    Shift=    0.000
 RMSDP=2.64D-04 MaxDP=1.93D-02 DE=-9.00D-04 OVMax= 5.25D-03

 Cycle   9  Pass 1  IDiag  1:
 RMSU=  8.13D-05    CP:  9.08D-01 -1.43D-03  2.50D-03  9.38D-01  1.72D+00
                    CP:  2.36D+00  2.19D+00  1.10D+00
 E= -529.520084257255     Delta-E=       -0.000072563457 Rises=F Damp=F
 DIIS: error= 1.71D-04 at cycle   9 NSaved=   9.
 NSaved= 9 IEnMin= 9 EnMin= -529.520084257255     IErMin= 9 ErrMin= 1.71D-04
 ErrMax= 1.71D-04  0.00D+00 EMaxC= 1.00D-01 BMatC= 1.88D-05 BMatP= 2.03D-04
 IDIUse=3 WtCom= 9.98D-01 WtEn= 1.71D-03
 Coeff-Com:  0.110D-02-0.105D-02 0.585D-03 0.174D-01-0.188D-01-0.125D+00
 Coeff-Com:  0.104D+00 0.271D+00 0.751D+00
 Coeff-En:   0.000D+00 0.000D+00 0.000D+00 0.000D+00 0.000D+00 0.000D+00
 Coeff-En:   0.000D+00 0.000D+00 0.100D+01
 Coeff:      0.110D-02-0.105D-02 0.584D-03 0.173D-01-0.188D-01-0.125D+00
 Coeff:      0.104D+00 0.271D+00 0.752D+00
 Gap=     0.021 Goal=   None    Shift=    0.000
 Gap=     0.186 Goal=   None    Shift=    0.000
 RMSDP=6.67D-05 MaxDP=5.64D-03 DE=-7.26D-05 OVMax= 1.74D-03

 Cycle  10  Pass 1  IDiag  1:
 RMSU=  3.44D-05    CP:  9.07D-01 -1.44D-03  2.49D-03  9.37D-01  1.72D+00
                    CP:  2.39D+00  2.30D+00  1.25D+00  1.17D+00
 E= -529.520091945642     Delta-E=       -0.000007688387 Rises=F Damp=F
 DIIS: error= 1.11D-04 at cycle  10 NSaved=  10.
 NSaved=10 IEnMin=10 EnMin= -529.520091945642     IErMin=10 ErrMin= 1.11D-04
 ErrMax= 1.11D-04  0.00D+00 EMaxC= 1.00D-01 BMatC= 2.70D-06 BMatP= 1.88D-05
 IDIUse=3 WtCom= 9.99D-01 WtEn= 1.11D-03
 Coeff-Com: -0.203D-03-0.311D-03 0.162D-02 0.889D-02 0.540D-02 0.316D-01
 Coeff-Com: -0.129D+00-0.212D-01 0.278D+00 0.825D+00
 Coeff-En:   0.000D+00 0.000D+00 0.000D+00 0.000D+00 0.000D+00 0.000D+00
 Coeff-En:   0.000D+00 0.000D+00 0.000D+00 0.100D+01
 Coeff:     -0.203D-03-0.310D-03 0.162D-02 0.888D-02 0.539D-02 0.315D-01
 Coeff:     -0.129D+00-0.212D-01 0.277D+00 0.825D+00
 Gap=     0.021 Goal=   None    Shift=    0.000
 Gap=     0.186 Goal=   None    Shift=    0.000
 RMSDP=3.06D-05 MaxDP=3.58D-03 DE=-7.69D-06 OVMax= 9.42D-04

 Cycle  11  Pass 1  IDiag  1:
 RMSU=  1.46D-05    CP:  9.07D-01 -1.44D-03  2.49D-03  9.37D-01  1.71D+00
                    CP:  2.39D+00  2.32D+00  1.27D+00  1.39D+00  1.18D+00
 E= -529.520093274655     Delta-E=       -0.000001329013 Rises=F Damp=F
 DIIS: error= 3.38D-05 at cycle  11 NSaved=  11.
 NSaved=11 IEnMin=11 EnMin= -529.520093274655     IErMin=11 ErrMin= 3.38D-05
 ErrMax= 3.38D-05  0.00D+00 EMaxC= 1.00D-01 BMatC= 1.06D-06 BMatP= 2.70D-06
 IDIUse=1 WtCom= 1.00D+00 WtEn= 0.00D+00
 Coeff-Com: -0.347D-03 0.143D-03 0.928D-03-0.176D-03 0.562D-02 0.348D-01
 Coeff-Com: -0.723D-01-0.654D-01-0.526D-01 0.374D+00 0.775D+00
 Coeff:     -0.347D-03 0.143D-03 0.928D-03-0.176D-03 0.562D-02 0.348D-01
 Coeff:     -0.723D-01-0.654D-01-0.526D-01 0.374D+00 0.775D+00
 Gap=     0.021 Goal=   None    Shift=    0.000
 Gap=     0.186 Goal=   None    Shift=    0.000
 RMSDP=1.25D-05 MaxDP=1.33D-03 DE=-1.33D-06 OVMax= 5.74D-04

 Cycle  12  Pass 1  IDiag  1:
 RMSU=  7.05D-06    CP:  9.07D-01 -1.44D-03  2.49D-03  9.37D-01  1.71D+00
                    CP:  2.39D+00  2.33D+00  1.28D+00  1.45D+00  1.39D+00
                    CP:  1.26D+00
 E= -529.520093762482     Delta-E=       -0.000000487827 Rises=F Damp=F
 DIIS: error= 1.55D-05 at cycle  12 NSaved=  12.
 NSaved=12 IEnMin=12 EnMin= -529.520093762482     IErMin=12 ErrMin= 1.55D-05
 ErrMax= 1.55D-05  0.00D+00 EMaxC= 1.00D-01 BMatC= 1.68D-07 BMatP= 1.06D-06
 IDIUse=1 WtCom= 1.00D+00 WtEn= 0.00D+00
 Coeff-Com: -0.363D-03 0.592D-03-0.929D-04-0.842D-03-0.562D-03 0.165D-04
 Coeff-Com:  0.409D-02-0.101D-01-0.564D-01-0.403D-01 0.157D+00 0.947D+00
 Coeff:     -0.363D-03 0.592D-03-0.929D-04-0.842D-03-0.562D-03 0.165D-04
 Coeff:      0.409D-02-0.101D-01-0.564D-01-0.403D-01 0.157D+00 0.947D+00
 Gap=     0.021 Goal=   None    Shift=    0.000
 Gap=     0.186 Goal=   None    Shift=    0.000
 RMSDP=8.01D-06 MaxDP=5.22D-04 DE=-4.88D-07 OVMax= 4.35D-04

 Cycle  13  Pass 1  IDiag  1:
 RMSU=  3.58D-06    CP:  9.07D-01 -1.44D-03  2.49D-03  9.37D-01  1.71D+00
                    CP:  2.39D+00  2.34D+00  1.28D+00  1.45D+00  1.45D+00
                    CP:  1.44D+00  1.51D+00
 E= -529.520093888711     Delta-E=       -0.000000126228 Rises=F Damp=F
 DIIS: error= 7.81D-06 at cycle  13 NSaved=  13.
 NSaved=13 IEnMin=13 EnMin= -529.520093888711     IErMin=13 ErrMin= 7.81D-06
 ErrMax= 7.81D-06  0.00D+00 EMaxC= 1.00D-01 BMatC= 1.73D-08 BMatP= 1.68D-07
 IDIUse=1 WtCom= 1.00D+00 WtEn= 0.00D+00
 Coeff-Com: -0.396D-04 0.112D-03-0.251D-03-0.284D-03-0.847D-03-0.446D-02
 Coeff-Com:  0.103D-01 0.621D-02-0.105D-01-0.572D-01-0.637D-01 0.212D+00
 Coeff-Com:  0.909D+00
 Coeff:     -0.396D-04 0.112D-03-0.251D-03-0.284D-03-0.847D-03-0.446D-02
 Coeff:      0.103D-01 0.621D-02-0.105D-01-0.572D-01-0.637D-01 0.212D+00
 Coeff:      0.909D+00
 Gap=     0.021 Goal=   None    Shift=    0.000
 Gap=     0.186 Goal=   None    Shift=    0.000
 RMSDP=5.19D-06 MaxDP=2.79D-04 DE=-1.26D-07 OVMax= 3.68D-04

 Cycle  14  Pass 1  IDiag  1:
 RMSU=  2.34D-06    CP:  9.07D-01 -1.44D-03  2.49D-03  9.37D-01  1.72D+00
                    CP:  2.39D+00  2.34D+00  1.27D+00  1.45D+00  1.46D+00
                    CP:  1.46D+00  1.87D+00  1.93D+00
 E= -529.520093921863     Delta-E=       -0.000000033152 Rises=F Damp=F
 DIIS: error= 6.12D-06 at cycle  14 NSaved=  14.
 NSaved=14 IEnMin=14 EnMin= -529.520093921863     IErMin=14 ErrMin= 6.12D-06
 ErrMax= 6.12D-06  0.00D+00 EMaxC= 1.00D-01 BMatC= 1.82D-08 BMatP= 1.73D-08
 IDIUse=1 WtCom= 1.00D+00 WtEn= 0.00D+00
 Coeff-Com:  0.208D-03-0.312D-03 0.135D-03 0.173D-03 0.430D-03-0.136D-02
 Coeff-Com:  0.238D-02 0.829D-02 0.199D-01-0.823D-02-0.112D+00-0.396D+00
 Coeff-Com:  0.634D+00 0.853D+00
 Coeff:      0.208D-03-0.312D-03 0.135D-03 0.173D-03 0.430D-03-0.136D-02
 Coeff:      0.238D-02 0.829D-02 0.199D-01-0.823D-02-0.112D+00-0.396D+00
 Coeff:      0.634D+00 0.853D+00
 Gap=     0.021 Goal=   None    Shift=    0.000
 Gap=     0.186 Goal=   None    Shift=    0.000
 RMSDP=7.63D-06 MaxDP=3.86D-04 DE=-3.32D-08 OVMax= 3.98D-04

 Cycle  15  Pass 1  IDiag  1:
 RMSU=  2.24D-06    CP:  9.07D-01 -1.44D-03  2.49D-03  9.37D-01  1.71D+00
                    CP:  2.39D+00  2.33D+00  1.27D+00  1.44D+00  1.47D+00
                    CP:  1.51D+00  2.22D+00  3.00D+00  2.74D+00
 E= -529.520093947726     Delta-E=       -0.000000025863 Rises=F Damp=F
 DIIS: error= 4.06D-06 at cycle  15 NSaved=  15.
 NSaved=15 IEnMin=15 EnMin= -529.520093947726     IErMin=15 ErrMin= 4.06D-06
 ErrMax= 4.06D-06  0.00D+00 EMaxC= 1.00D-01 BMatC= 2.31D-09 BMatP= 1.73D-08
 IDIUse=1 WtCom= 1.00D+00 WtEn= 0.00D+00
 Coeff-Com: -0.930D-05 0.403D-05 0.573D-05 0.608D-04 0.507D-04 0.963D-03
 Coeff-Com: -0.257D-02-0.116D-02 0.106D-02 0.156D-01 0.157D-01-0.791D-01
 Coeff-Com: -0.119D+00-0.240D+00 0.141D+01
 Coeff:     -0.930D-05 0.403D-05 0.573D-05 0.608D-04 0.507D-04 0.963D-03
 Coeff:     -0.257D-02-0.116D-02 0.106D-02 0.156D-01 0.157D-01-0.791D-01
 Coeff:     -0.119D+00-0.240D+00 0.141D+01
 Gap=     0.021 Goal=   None    Shift=    0.000
 Gap=     0.186 Goal=   None    Shift=    0.000
 RMSDP=1.36D-05 MaxDP=8.58D-04 DE=-2.59D-08 OVMax= 3.48D-04

 Cycle  16  Pass 1  IDiag  1:
 RMSU=  1.04D-05    CP:  9.07D-01 -1.44D-03  2.49D-03  9.37D-01  1.71D+00
                    CP:  2.39D+00  2.33D+00  1.27D+00  1.44D+00  1.47D+00
                    CP:  1.56D+00  2.67D+00  3.00D+00  3.00D+00  3.00D+00
 E= -529.520093958203     Delta-E=       -0.000000010477 Rises=F Damp=F
 DIIS: error= 1.81D-06 at cycle  16 NSaved=  16.
 NSaved=16 IEnMin=16 EnMin= -529.520093958203     IErMin=16 ErrMin= 1.81D-06
 ErrMax= 1.81D-06  0.00D+00 EMaxC= 1.00D-01 BMatC= 1.34D-09 BMatP= 2.31D-09
 IDIUse=1 WtCom= 1.00D+00 WtEn= 0.00D+00
 Coeff-Com: -0.501D-04 0.706D-04-0.536D-04-0.587D-05-0.114D-03 0.676D-03
 Coeff-Com: -0.170D-02-0.214D-02-0.416D-02 0.923D-02 0.305D-01 0.402D-01
 Coeff-Com: -0.155D+00-0.360D+00 0.785D+00 0.658D+00
 Coeff:     -0.501D-04 0.706D-04-0.536D-04-0.587D-05-0.114D-03 0.676D-03
 Coeff:     -0.170D-02-0.214D-02-0.416D-02 0.923D-02 0.305D-01 0.402D-01
 Coeff:     -0.155D+00-0.360D+00 0.785D+00 0.658D+00
 Gap=     0.021 Goal=   None    Shift=    0.000
 Gap=     0.186 Goal=   None    Shift=    0.000
 RMSDP=1.34D-05 MaxDP=8.66D-04 DE=-1.05D-08 OVMax= 1.61D-04

 Cycle  17  Pass 1  IDiag  1:
 RMSU=  4.92D-06    CP:  9.07D-01 -1.44D-03  2.49D-03  9.37D-01  1.71D+00
                    CP:  2.39D+00  2.33D+00  1.27D+00  1.44D+00  1.48D+00
                    CP:  1.61D+00  2.99D+00  3.00D+00  3.00D+00  3.00D+00
                    CP:  2.17D+00
 E= -529.520093961270     Delta-E=       -0.000000003067 Rises=F Damp=F
 DIIS: error= 1.48D-06 at cycle  17 NSaved=  17.
 NSaved=17 IEnMin=17 EnMin= -529.520093961270     IErMin=17 ErrMin= 1.48D-06
 ErrMax= 1.48D-06  0.00D+00 EMaxC= 1.00D-01 BMatC= 5.36D-10 BMatP= 1.34D-09
 IDIUse=1 WtCom= 1.00D+00 WtEn= 0.00D+00
 Coeff-Com:  0.222D-05 0.215D-05-0.242D-05-0.542D-04-0.589D-05-0.390D-03
 Coeff-Com:  0.112D-02 0.181D-03-0.285D-02-0.765D-02 0.309D-03 0.615D-01
 Coeff-Com:  0.627D-01-0.476D-01-0.512D+00 0.431D-01 0.140D+01
 Coeff:      0.222D-05 0.215D-05-0.242D-05-0.542D-04-0.589D-05-0.390D-03
 Coeff:      0.112D-02 0.181D-03-0.285D-02-0.765D-02 0.309D-03 0.615D-01
 Coeff:      0.627D-01-0.476D-01-0.512D+00 0.431D-01 0.140D+01
 Gap=     0.021 Goal=   None    Shift=    0.000
 Gap=     0.186 Goal=   None    Shift=    0.000
 RMSDP=4.06D-05 MaxDP=2.64D-03 DE=-3.07D-09 OVMax= 3.80D-04

 Cycle  18  Pass 1  IDiag  1:
 RMSU=  2.94D-05    CP:  9.07D-01 -1.44D-03  2.49D-03  9.37D-01  1.71D+00
                    CP:  2.39D+00  2.33D+00  1.27D+00  1.44D+00  1.50D+00
                    CP:  1.74D+00  3.00D+00  3.00D+00  3.00D+00  3.00D+00
                    CP:  3.00D+00  3.00D+00
 E= -529.520093967871     Delta-E=       -0.000000006601 Rises=F Damp=F
 DIIS: error= 9.18D-07 at cycle  18 NSaved=  18.
 NSaved=18 IEnMin=18 EnMin= -529.520093967871     IErMin=18 ErrMin= 9.18D-07
 ErrMax= 9.18D-07  0.00D+00 EMaxC= 1.00D-01 BMatC= 3.50D-10 BMatP= 5.36D-10
 IDIUse=1 WtCom= 1.00D+00 WtEn= 0.00D+00
 Coeff-Com:  0.555D-05-0.466D-05 0.812D-06-0.370D-04 0.730D-05-0.293D-03
 Coeff-Com:  0.814D-03 0.289D-03-0.146D-02-0.546D-02-0.186D-02 0.322D-01
 Coeff-Com:  0.572D-01-0.154D-01-0.335D+00-0.787D-01 0.896D+00 0.451D+00
 Coeff:      0.555D-05-0.466D-05 0.812D-06-0.370D-04 0.730D-05-0.293D-03
 Coeff:      0.814D-03 0.289D-03-0.146D-02-0.546D-02-0.186D-02 0.322D-01
 Coeff:      0.572D-01-0.154D-01-0.335D+00-0.787D-01 0.896D+00 0.451D+00
 Gap=     0.021 Goal=   None    Shift=    0.000
 Gap=     0.186 Goal=   None    Shift=    0.000
 RMSDP=2.46D-05 MaxDP=1.60D-03 DE=-6.60D-09 OVMax= 2.13D-04

 Cycle  19  Pass 1  IDiag  1:
 RMSU=  5.31D-06    CP:  9.07D-01 -1.44D-03  2.49D-03  9.37D-01  1.71D+00
                    CP:  2.39D+00  2.33D+00  1.27D+00  1.44D+00  1.50D+00
                    CP:  1.82D+00  3.00D+00  3.00D+00  3.00D+00  3.00D+00
                    CP:  3.00D+00  3.00D+00  1.81D+00
 E= -529.520093972511     Delta-E=       -0.000000004639 Rises=F Damp=F
 DIIS: error= 1.20D-06 at cycle  19 NSaved=  19.
 NSaved=19 IEnMin=19 EnMin= -529.520093972511     IErMin=18 ErrMin= 9.18D-07
 ErrMax= 1.20D-06  0.00D+00 EMaxC= 1.00D-01 BMatC= 4.54D-10 BMatP= 3.50D-10
 IDIUse=1 WtCom= 1.00D+00 WtEn= 0.00D+00
 Coeff-Com:  0.247D-04-0.314D-04 0.168D-04-0.480D-04 0.514D-04-0.592D-03
 Coeff-Com:  0.158D-02 0.109D-02-0.174D-03-0.965D-02-0.124D-01 0.202D-01
 Coeff-Com:  0.127D+00 0.918D-01-0.597D+00-0.393D+00 0.108D+01 0.286D+01
 Coeff-Com: -0.217D+01
 Coeff:      0.247D-04-0.314D-04 0.168D-04-0.480D-04 0.514D-04-0.592D-03
 Coeff:      0.158D-02 0.109D-02-0.174D-03-0.965D-02-0.124D-01 0.202D-01
 Coeff:      0.127D+00 0.918D-01-0.597D+00-0.393D+00 0.108D+01 0.286D+01
 Coeff:     -0.217D+01
 Gap=     0.021 Goal=   None    Shift=    0.000
 Gap=     0.186 Goal=   None    Shift=    0.000
 RMSDP=5.97D-05 MaxDP=3.88D-03 DE=-4.64D-09 OVMax= 5.20D-04

 Cycle  20  Pass 1  IDiag  1:
 RMSU=  1.59D-06    CP:  9.07D-01 -1.44D-03  2.49D-03  9.37D-01  1.71D+00
                    CP:  2.39D+00  2.33D+00  1.27D+00  1.44D+00  1.48D+00
                    CP:  1.64D+00  3.00D+00  3.00D+00  3.00D+00  3.00D+00
                    CP:  2.68D+00  1.28D+00  6.61D-03 -6.81D-02
 E= -529.520093963762     Delta-E=        0.000000008749 Rises=F Damp=F
 DIIS: error= 5.09D-07 at cycle  20 NSaved=  20.
 NSaved=20 IEnMin=19 EnMin= -529.520093972511     IErMin=20 ErrMin= 5.09D-07
 ErrMax= 5.09D-07  0.00D+00 EMaxC= 1.00D-01 BMatC= 1.96D-10 BMatP= 3.50D-10
 IDIUse=1 WtCom= 1.00D+00 WtEn= 0.00D+00
 Coeff-Com:  0.187D-04-0.262D-04 0.655D-05-0.152D-04 0.374D-04-0.302D-03
 Coeff-Com:  0.734D-03 0.908D-03 0.150D-02-0.456D-02-0.114D-01-0.197D-01
 Coeff-Com:  0.885D-01 0.107D+00-0.247D+00-0.458D+00 0.162D+00 0.254D+01
 Coeff-Com: -0.228D+01 0.113D+01
 Coeff:      0.187D-04-0.262D-04 0.655D-05-0.152D-04 0.374D-04-0.302D-03
 Coeff:      0.734D-03 0.908D-03 0.150D-02-0.456D-02-0.114D-01-0.197D-01
 Coeff:      0.885D-01 0.107D+00-0.247D+00-0.458D+00 0.162D+00 0.254D+01
 Coeff:     -0.228D+01 0.113D+01
 Gap=     0.021 Goal=   None    Shift=    0.000
 Gap=     0.186 Goal=   None    Shift=    0.000
 RMSDP=3.35D-05 MaxDP=2.18D-03 DE= 8.75D-09 OVMax= 3.02D-04

 Cycle  21  Pass 1  IDiag  1:
 Restarting incremental Fock formation.
 E= -529.520093962182     Delta-E=        0.000000001580 Rises=F Damp=F
 DIIS: error= 2.36D-07 at cycle  21 NSaved=  20.
 NSaved=20 IEnMin=18 EnMin= -529.520093972511     IErMin=20 ErrMin= 2.36D-07
 ErrMax= 2.36D-07  0.00D+00 EMaxC= 1.00D-01 BMatC= 2.98D-11 BMatP= 1.96D-10
 IDIUse=1 WtCom= 1.00D+00 WtEn= 0.00D+00
 Coeff-Com: -0.124D-05 0.611D-05 0.800D-05 0.140D-04 0.127D-03-0.350D-03
 Coeff-Com: -0.965D-05 0.649D-03 0.197D-02 0.300D-03-0.216D-01-0.601D-02
 Coeff-Com:  0.417D-02 0.148D+00-0.346D-01-0.335D+00-0.286D+00 0.551D-01
 Coeff-Com:  0.432D+00 0.104D+01
 Coeff:     -0.124D-05 0.611D-05 0.800D-05 0.140D-04 0.127D-03-0.350D-03
 Coeff:     -0.965D-05 0.649D-03 0.197D-02 0.300D-03-0.216D-01-0.601D-02
 Coeff:      0.417D-02 0.148D+00-0.346D-01-0.335D+00-0.286D+00 0.551D-01
 Coeff:      0.432D+00 0.104D+01
 Gap=     0.021 Goal=   None    Shift=    0.000
 Gap=     0.186 Goal=   None    Shift=    0.000
 RMSDP=8.58D-06 MaxDP=5.59D-04 DE= 1.58D-09 OVMax= 8.88D-05

 Cycle  22  Pass 1  IDiag  1:
 RMSU=  8.58D-06    CP:  1.00D+00
 E= -529.520093962153     Delta-E=        0.000000000029 Rises=F Damp=F
 DIIS: error= 1.05D-07 at cycle  22 NSaved=  20.
 NSaved=20 IEnMin=17 EnMin= -529.520093972511     IErMin=20 ErrMin= 1.05D-07
 ErrMax= 1.05D-07  0.00D+00 EMaxC= 1.00D-01 BMatC= 7.56D-12 BMatP= 2.98D-11
 IDIUse=1 WtCom= 1.00D+00 WtEn= 0.00D+00
 Coeff-Com:  0.102D-05 0.364D-05-0.180D-05-0.241D-04 0.408D-05 0.162D-04
 Coeff-Com:  0.153D-06 0.102D-03 0.421D-03-0.207D-02-0.136D-02 0.604D-03
 Coeff-Com:  0.173D-02 0.233D-01 0.284D-01-0.256D+00 0.244D+00-0.165D+00
 Coeff-Com: -0.295D-01 0.115D+01
 Coeff:      0.102D-05 0.364D-05-0.180D-05-0.241D-04 0.408D-05 0.162D-04
 Coeff:      0.153D-06 0.102D-03 0.421D-03-0.207D-02-0.136D-02 0.604D-03
 Coeff:      0.173D-02 0.233D-01 0.284D-01-0.256D+00 0.244D+00-0.165D+00
 Coeff:     -0.295D-01 0.115D+01
 Gap=     0.021 Goal=   None    Shift=    0.000
 Gap=     0.186 Goal=   None    Shift=    0.000
 RMSDP=1.02D-06 MaxDP=5.03D-05 DE= 2.93D-11 OVMax= 1.37D-05

 Cycle  23  Pass 1  IDiag  1:
 RMSU=  9.61D-07    CP:  1.00D+00  9.60D-01
 E= -529.520093962164     Delta-E=       -0.000000000012 Rises=F Damp=F
 DIIS: error= 4.60D-08 at cycle  23 NSaved=  20.
 NSaved=20 IEnMin=16 EnMin= -529.520093972511     IErMin=20 ErrMin= 4.60D-08
 ErrMax= 4.60D-08  0.00D+00 EMaxC= 1.00D-01 BMatC= 1.49D-12 BMatP= 7.56D-12
 IDIUse=1 WtCom= 1.00D+00 WtEn= 0.00D+00
 Coeff-Com:  0.700D-07-0.183D-05-0.248D-04 0.358D-04-0.106D-04-0.131D-03
 Coeff-Com: -0.177D-03 0.463D-03 0.247D-02-0.577D-03-0.219D-02-0.202D-01
 Coeff-Com:  0.151D-01 0.661D-01-0.118D+00 0.144D+00-0.159D+00-0.166D+00
 Coeff-Com:  0.574D+00 0.665D+00
 Coeff:      0.700D-07-0.183D-05-0.248D-04 0.358D-04-0.106D-04-0.131D-03
 Coeff:     -0.177D-03 0.463D-03 0.247D-02-0.577D-03-0.219D-02-0.202D-01
 Coeff:      0.151D-01 0.661D-01-0.118D+00 0.144D+00-0.159D+00-0.166D+00
 Coeff:      0.574D+00 0.665D+00
 Gap=     0.021 Goal=   None    Shift=    0.000
 Gap=     0.186 Goal=   None    Shift=    0.000
 RMSDP=1.13D-06 MaxDP=5.14D-05 DE=-1.16D-11 OVMax= 6.65D-06

 Cycle  24  Pass 1  IDiag  1:
 RMSU=  4.95D-08    CP:  1.00D+00  8.71D-01  1.87D+00
 E= -529.520093962169     Delta-E=       -0.000000000004 Rises=F Damp=F
 DIIS: error= 1.75D-08 at cycle  24 NSaved=  20.
 NSaved=20 IEnMin=15 EnMin= -529.520093972511     IErMin=20 ErrMin= 1.75D-08
 ErrMax= 1.75D-08  0.00D+00 EMaxC= 1.00D-01 BMatC= 2.11D-13 BMatP= 1.49D-12
 IDIUse=1 WtCom= 1.00D+00 WtEn= 0.00D+00
 Coeff-Com: -0.639D-06-0.537D-05 0.680D-05-0.578D-05-0.407D-04-0.742D-04
 Coeff-Com:  0.111D-03 0.109D-02 0.139D-03-0.181D-02-0.458D-02-0.329D-03
 Coeff-Com:  0.192D-01-0.367D-02 0.147D-01-0.321D-01-0.522D-01 0.369D-02
 Coeff-Com:  0.283D+00 0.773D+00
 Coeff:     -0.639D-06-0.537D-05 0.680D-05-0.578D-05-0.407D-04-0.742D-04
 Coeff:      0.111D-03 0.109D-02 0.139D-03-0.181D-02-0.458D-02-0.329D-03
 Coeff:      0.192D-01-0.367D-02 0.147D-01-0.321D-01-0.522D-01 0.369D-02
 Coeff:      0.283D+00 0.773D+00
 Gap=     0.021 Goal=   None    Shift=    0.000
 Gap=     0.186 Goal=   None    Shift=    0.000
 RMSDP=1.46D-06 MaxDP=6.87D-05 DE=-4.32D-12 OVMax= 4.24D-06

 Cycle  25  Pass 1  IDiag  1:
 RMSU=  4.95D-08    CP:  1.00D+00  7.52D-01  2.95D+00  2.91D+00
 E= -529.520093962171     Delta-E=       -0.000000000003 Rises=F Damp=F
 DIIS: error= 1.91D-08 at cycle  25 NSaved=  20.
 NSaved=20 IEnMin=14 EnMin= -529.520093972511     IErMin=19 ErrMin= 1.75D-08
 ErrMax= 1.91D-08  0.00D+00 EMaxC= 1.00D-01 BMatC= 8.47D-14 BMatP= 2.11D-13
 IDIUse=1 WtCom= 1.00D+00 WtEn= 0.00D+00
 Coeff-Com: -0.273D-05 0.759D-05 0.531D-05 0.566D-05-0.522D-04-0.101D-03
 Coeff-Com:  0.695D-04 0.764D-03 0.255D-03-0.238D-02-0.362D-02 0.404D-02
 Coeff-Com:  0.176D-01-0.136D-01 0.173D-02-0.678D-02-0.546D-01 0.271D-01
 Coeff-Com:  0.308D+00 0.721D+00
 Coeff:     -0.273D-05 0.759D-05 0.531D-05 0.566D-05-0.522D-04-0.101D-03
 Coeff:      0.695D-04 0.764D-03 0.255D-03-0.238D-02-0.362D-02 0.404D-02
 Coeff:      0.176D-01-0.136D-01 0.173D-02-0.678D-02-0.546D-01 0.271D-01
 Coeff:      0.308D+00 0.721D+00
 Gap=     0.021 Goal=   None    Shift=    0.000
 Gap=     0.186 Goal=   None    Shift=    0.000
 RMSDP=1.55D-06 MaxDP=7.33D-05 DE=-2.50D-12 OVMax= 4.28D-06

 Cycle  26  Pass 1  IDiag  1:
 RMSU=  1.06D-06    CP:  1.00D+00  6.24D-01  3.00D+00  3.00D+00  2.16D+00
 E= -529.520093962173     Delta-E=       -0.000000000002 Rises=F Damp=F
 DIIS: error= 2.22D-08 at cycle  26 NSaved=  20.
 NSaved=20 IEnMin=13 EnMin= -529.520093972511     IErMin=18 ErrMin= 1.75D-08
 ErrMax= 2.22D-08  0.00D+00 EMaxC= 1.00D-01 BMatC= 8.16D-14 BMatP= 8.47D-14
 IDIUse=1 WtCom= 1.00D+00 WtEn= 0.00D+00
 Large coefficients: NSaved= 20 BigCof=    0.00 CofMax=   10.00 Det=-3.15D-15
 Inversion failed.  Reducing to 19 matrices.
 Large coefficients: NSaved= 19 BigCof=    0.00 CofMax=   10.00 Det=-6.77D-15
 Inversion failed.  Reducing to 18 matrices.
 Large coefficients: NSaved= 18 BigCof=    0.00 CofMax=   10.00 Det=-7.30D-15
 Inversion failed.  Reducing to 17 matrices.
 Large coefficients: NSaved= 17 BigCof=    0.00 CofMax=   10.00 Det=-7.93D-15
 Inversion failed.  Reducing to 16 matrices.
 Large coefficients: NSaved= 16 BigCof=    0.00 CofMax=   10.00 Det=-7.94D-15
 Inversion failed.  Reducing to 15 matrices.
 Coeff-Com: -0.265D-04 0.352D-03-0.482D-03 0.201D-03-0.352D-02 0.194D-02
 Coeff-Com:  0.126D-01-0.951D-02 0.180D-02-0.304D-02-0.817D-01 0.539D-01
 Coeff-Com:  0.501D+00 0.129D+01-0.767D+00
 Coeff:     -0.265D-04 0.352D-03-0.482D-03 0.201D-03-0.352D-02 0.194D-02
 Coeff:      0.126D-01-0.951D-02 0.180D-02-0.304D-02-0.817D-01 0.539D-01
 Coeff:      0.501D+00 0.129D+01-0.767D+00
 Gap=     0.021 Goal=   None    Shift=    0.000
 Gap=     0.186 Goal=   None    Shift=    0.000
 RMSDP=1.74D-06 MaxDP=8.20D-05 DE=-1.82D-12 OVMax= 4.72D-06

 Cycle  27  Pass 1  IDiag  1:
 RMSU=  2.52D-09    CP:  1.00D+00  7.67D-01  2.82D+00  2.61D+00  7.90D-01
                    CP: -7.36D-06
 E= -529.520093962170     Delta-E=        0.000000000003 Rises=F Damp=F
 DIIS: error= 1.87D-08 at cycle  27 NSaved=  16.
 NSaved=16 IEnMin= 8 EnMin= -529.520093972511     IErMin=13 ErrMin= 1.75D-08
 ErrMax= 1.87D-08  0.00D+00 EMaxC= 1.00D-01 BMatC= 6.75D-14 BMatP= 8.16D-14
 IDIUse=1 WtCom= 1.00D+00 WtEn= 0.00D+00
 Large coefficients: NSaved= 16 BigCof=    0.00 CofMax=   10.00 Det=-2.32D-15
 Inversion failed.  Reducing to 15 matrices.
 Coeff-Com:  0.651D-04-0.645D-03 0.184D-02-0.466D-02-0.745D-02 0.285D-01
 Coeff-Com: -0.273D-01 0.202D-01 0.178D-01-0.136D+00-0.133D+00 0.256D+00
 Coeff-Com:  0.193D+01-0.344D+01 0.250D+01
 Coeff:      0.651D-04-0.645D-03 0.184D-02-0.466D-02-0.745D-02 0.285D-01
 Coeff:     -0.273D-01 0.202D-01 0.178D-01-0.136D+00-0.133D+00 0.256D+00
 Coeff:      0.193D+01-0.344D+01 0.250D+01
 Gap=     0.021 Goal=   None    Shift=    0.000
 Gap=     0.186 Goal=   None    Shift=    0.000
 RMSDP=4.42D-06 MaxDP=2.08D-04 DE= 2.96D-12 OVMax= 1.20D-05

 Cycle  28  Pass 1  IDiag  1:
 RMSU=  4.41D-08    CP:  1.00D+00  1.13D+00 -4.27D-01 -3.00D+00 -2.99D+00
                    CP: -3.75D-03  3.00D+00
 E= -529.520093962168     Delta-E=        0.000000000002 Rises=F Damp=F
 DIIS: error= 9.92D-09 at cycle  28 NSaved=  16.
 NSaved=16 IEnMin= 7 EnMin= -529.520093972511     IErMin=16 ErrMin= 9.92D-09
 ErrMax= 9.92D-09  0.00D+00 EMaxC= 1.00D-01 BMatC= 3.72D-14 BMatP= 6.75D-14
 IDIUse=1 WtCom= 1.00D+00 WtEn= 0.00D+00
 Large coefficients: NSaved= 16 BigCof=    0.00 CofMax=   10.00 Det=-2.26D-15
 Inversion failed.  Reducing to 15 matrices.
 Coeff-Com: -0.254D-03 0.219D-02-0.195D-02-0.984D-02 0.170D-01-0.206D-01
 Coeff-Com:  0.226D-01 0.279D-01-0.951D-01-0.183D+00-0.889D-01 0.970D+00
 Coeff-Com: -0.294D+01 0.237D+01 0.926D+00
 Coeff:     -0.254D-03 0.219D-02-0.195D-02-0.984D-02 0.170D-01-0.206D-01
 Coeff:      0.226D-01 0.279D-01-0.951D-01-0.183D+00-0.889D-01 0.970D+00
 Coeff:     -0.294D+01 0.237D+01 0.926D+00
 Gap=     0.021 Goal=   None    Shift=    0.000
 Gap=     0.186 Goal=   None    Shift=    0.000
 RMSDP=3.64D-06 MaxDP=1.72D-04 DE= 1.82D-12 OVMax= 9.85D-06

 Cycle  29  Pass 1  IDiag  1:
 RMSU=  2.30D-07    CP:  1.00D+00  1.43D+00 -3.00D+00 -3.00D+00 -3.00D+00
                    CP: -1.17D-01  3.00D+00  3.00D+00
 E= -529.520093962169     Delta-E=       -0.000000000000 Rises=F Damp=F
 DIIS: error= 2.65D-09 at cycle  29 NSaved=  16.
 NSaved=16 IEnMin= 6 EnMin= -529.520093972511     IErMin=16 ErrMin= 2.65D-09
 ErrMax= 2.65D-09  0.00D+00 EMaxC= 1.00D-01 BMatC= 4.28D-15 BMatP= 3.72D-14
 IDIUse=1 WtCom= 1.00D+00 WtEn= 0.00D+00
 Large coefficients: NSaved= 16 BigCof=    0.00 CofMax=   10.00 Det=-5.87D-16
 Inversion failed.  Reducing to 15 matrices.
 Coeff-Com: -0.453D-03 0.531D-03 0.180D-02-0.248D-02 0.254D-02-0.295D-02
 Coeff-Com: -0.288D-02 0.200D-01 0.161D-01-0.627D-01-0.301D+00 0.109D+00
 Coeff-Com: -0.589D-01 0.266D+00 0.102D+01
 Coeff:     -0.453D-03 0.531D-03 0.180D-02-0.248D-02 0.254D-02-0.295D-02
 Coeff:     -0.288D-02 0.200D-01 0.161D-01-0.627D-01-0.301D+00 0.109D+00
 Coeff:     -0.589D-01 0.266D+00 0.102D+01
 Gap=     0.021 Goal=   None    Shift=    0.000
 Gap=     0.186 Goal=   None    Shift=    0.000
 RMSDP=1.15D-06 MaxDP=5.43D-05 DE=-4.55D-13 OVMax= 3.12D-06

 Cycle  30  Pass 1  IDiag  1:
 RMSU=  3.49D-08    CP:  1.00D+00  1.52D+00 -3.00D+00 -3.00D+00 -3.00D+00
                    CP: -8.91D-01  3.00D+00  3.00D+00  1.15D+00
 E= -529.520093962166     Delta-E=        0.000000000003 Rises=F Damp=F
 DIIS: error= 1.50D-09 at cycle  30 NSaved=  16.
 NSaved=16 IEnMin= 5 EnMin= -529.520093972511     IErMin=16 ErrMin= 1.50D-09
 ErrMax= 1.50D-09  0.00D+00 EMaxC= 1.00D-01 BMatC= 6.92D-16 BMatP= 4.28D-15
 IDIUse=1 WtCom= 1.00D+00 WtEn= 0.00D+00
 Large coefficients: NSaved= 16 BigCof=    0.00 CofMax=   10.00 Det=-6.61D-16
 Inversion failed.  Reducing to 15 matrices.
 Coeff-Com:  0.151D-03 0.453D-03-0.216D-02 0.246D-02-0.216D-02-0.179D-02
 Coeff-Com:  0.934D-02 0.121D-01-0.220D-01-0.157D+00 0.224D+00-0.131D+00
 Coeff-Com: -0.250D-01 0.226D+00 0.866D+00
 Coeff:      0.151D-03 0.453D-03-0.216D-02 0.246D-02-0.216D-02-0.179D-02
 Coeff:      0.934D-02 0.121D-01-0.220D-01-0.157D+00 0.224D+00-0.131D+00
 Coeff:     -0.250D-01 0.226D+00 0.866D+00
 Gap=     0.021 Goal=   None    Shift=    0.000
 Gap=     0.186 Goal=   None    Shift=    0.000
 RMSDP=1.34D-07 MaxDP=6.36D-06 DE= 2.73D-12 OVMax= 3.75D-07

 Cycle  31  Pass 1  IDiag  1:
 RMSU=  7.53D-10    CP:  1.00D+00  1.53D+00 -3.00D+00 -3.00D+00 -3.00D+00
                    CP: -9.81D-01  3.00D+00  3.00D+00  1.17D+00  1.12D+00
 E= -529.520093962167     Delta-E=       -0.000000000001 Rises=F Damp=F
 DIIS: error= 6.47D-10 at cycle  31 NSaved=  16.
 NSaved=16 IEnMin= 4 EnMin= -529.520093972511     IErMin=16 ErrMin= 6.47D-10
 ErrMax= 6.47D-10  0.00D+00 EMaxC= 1.00D-01 BMatC= 2.94D-16 BMatP= 6.92D-16
 IDIUse=1 WtCom= 1.00D+00 WtEn= 0.00D+00
 Large coefficients: NSaved= 16 BigCof=    0.00 CofMax=   10.00 Det=-7.80D-16
 Inversion failed.  Reducing to 15 matrices.
 Coeff-Com:  0.252D-03-0.951D-03 0.105D-02-0.921D-03-0.578D-03 0.259D-02
 Coeff-Com:  0.101D-01 0.108D-01-0.291D-01 0.153D+00-0.124D+00-0.866D-01
 Coeff-Com: -0.797D-01 0.474D+00 0.670D+00
 Coeff:      0.252D-03-0.951D-03 0.105D-02-0.921D-03-0.578D-03 0.259D-02
 Coeff:      0.101D-01 0.108D-01-0.291D-01 0.153D+00-0.124D+00-0.866D-01
 Coeff:     -0.797D-01 0.474D+00 0.670D+00
 Gap=     0.021 Goal=   None    Shift=    0.000
 Gap=     0.186 Goal=   None    Shift=    0.000
 RMSDP=3.69D-08 MaxDP=1.74D-06 DE=-1.36D-12 OVMax= 1.05D-07

 Cycle  32  Pass 1  IDiag  1:
 RMSU=  3.57D-10    CP:  1.00D+00  1.54D+00 -3.00D+00 -3.00D+00 -3.00D+00
                    CP: -1.01D+00  3.00D+00  3.00D+00  1.17D+00  1.15D+00
                    CP:  1.01D+00
 E= -529.520093962168     Delta-E=       -0.000000000001 Rises=F Damp=F
 DIIS: error= 1.98D-10 at cycle  32 NSaved=  16.
 NSaved=16 IEnMin= 3 EnMin= -529.520093972511     IErMin=16 ErrMin= 1.98D-10
 ErrMax= 1.98D-10  0.00D+00 EMaxC= 1.00D-01 BMatC= 2.18D-17 BMatP= 2.94D-16
 IDIUse=1 WtCom= 1.00D+00 WtEn= 0.00D+00
 Large coefficients: NSaved= 16 BigCof=    0.00 CofMax=   10.00 Det=-1.22D-16
 Inversion failed.  Reducing to 15 matrices.
 Coeff-Com:  0.260D-03-0.210D-03 0.495D-04-0.126D-04-0.936D-03 0.192D-03
 Coeff-Com:  0.744D-02 0.260D-01-0.145D-01 0.121D-02-0.152D-01-0.694D-01
 Coeff-Com: -0.505D-03 0.160D+00 0.906D+00
 Coeff:      0.260D-03-0.210D-03 0.495D-04-0.126D-04-0.936D-03 0.192D-03
 Coeff:      0.744D-02 0.260D-01-0.145D-01 0.121D-02-0.152D-01-0.694D-01
 Coeff:     -0.505D-03 0.160D+00 0.906D+00
 Gap=     0.021 Goal=   None    Shift=    0.000
 Gap=     0.186 Goal=   None    Shift=    0.000
 RMSDP=5.56D-09 MaxDP=2.62D-07 DE=-9.09D-13 OVMax= 2.68D-08

 SCF Done:  E(UPBE1PBE) =  -529.520093962     A.U. after   32 cycles
            NFock= 32  Conv=0.56D-08     -V/T= 2.0021
 <Sx>= 0.0000 <Sy>= 0.0000 <Sz>= 0.5000 <S**2>= 0.7585 S= 0.5042
 <L.S>=  0.00000000000    
 KE= 5.284069177882D+02 PE=-2.118948637547D+03 EE= 6.329113723389D+02
 Annihilation of the first spin contaminant:
 S**2 before annihilation     0.7585,   after     0.7500
 Leave Link  502 at Wed Jan 29 15:58:43 2025, MaxMem=   104857600 cpu:             132.0 elap:             132.5
 (Enter /sw/cluster/pub/apps//g16/l601.exe)
 Copying SCF densities to generalized density rwf, IOpCl= 1 IROHF=0.

 **********************************************************************

            Population analysis using the SCF density.

 **********************************************************************

 Alpha  occ. eigenvalues --  -24.62019 -24.61749 -24.61632 -10.12861 -10.12258
 Alpha  occ. eigenvalues --  -10.11380 -10.03774 -10.03151 -10.02921  -1.11054
 Alpha  occ. eigenvalues --   -1.10191  -1.09730  -0.71287  -0.60461  -0.59560
 Alpha  occ. eigenvalues --   -0.48806  -0.47735  -0.41873  -0.40051  -0.37659
 Alpha  occ. eigenvalues --   -0.34709  -0.34352  -0.32449  -0.31179  -0.29732
 Alpha  occ. eigenvalues --   -0.28939  -0.27740  -0.24293  -0.21822  -0.19447
 Alpha  occ. eigenvalues --   -0.19326  -0.10231  -0.07904   0.09470
 Alpha virt. eigenvalues --    0.11612   0.12249   0.13046   0.16332   0.17383
 Alpha virt. eigenvalues --    0.18058   0.19817   0.20414   0.21592   0.22431
 Alpha virt. eigenvalues --    0.22755   0.23670   0.24406   0.24770   0.25783
 Alpha virt. eigenvalues --    0.25973   0.26060   0.26965   0.27056   0.28194
 Alpha virt. eigenvalues --    0.28571   0.29057   0.29983   0.31413   0.31522
 Alpha virt. eigenvalues --    0.33641   0.34633   0.34672   0.34809   0.36675
 Alpha virt. eigenvalues --    0.38647   0.41536   0.42367   0.43426   0.44896
 Alpha virt. eigenvalues --    0.45571   0.46420   0.48107   0.48949   0.49696
 Alpha virt. eigenvalues --    0.51155   0.52023   0.52672   0.53462   0.54478
 Alpha virt. eigenvalues --    0.57118   0.57707   0.59275   0.59730   0.62162
 Alpha virt. eigenvalues --    0.66571   0.68787   0.69208   0.71235   0.73040
 Alpha virt. eigenvalues --    0.74763   0.75427   0.75447   0.78322   0.78448
 Alpha virt. eigenvalues --    0.80819   0.80967   0.86586   0.87123   0.91471
 Alpha virt. eigenvalues --    0.92064   0.94964   0.97375   0.99740   1.02328
 Alpha virt. eigenvalues --    1.03048   1.05816   1.06164   1.09444   1.11264
 Alpha virt. eigenvalues --    1.14882   1.17240   1.18481   1.19662   1.20756
 Alpha virt. eigenvalues --    1.23758   1.27308   1.33570   1.34638   1.39580
 Alpha virt. eigenvalues --    1.44535   1.50889   1.57091   1.58580   1.61189
 Alpha virt. eigenvalues --    1.61751   1.62502   1.62693   1.62861   1.69250
 Alpha virt. eigenvalues --    1.70569   1.72668   1.73451   1.74565   1.75323
 Alpha virt. eigenvalues --    1.79130   1.80236   1.85070   1.88049   1.88994
 Alpha virt. eigenvalues --    1.94020   2.01184   2.04945   2.09130   2.09957
 Alpha virt. eigenvalues --    2.11773   2.13768   2.16612   2.18642   2.20251
 Alpha virt. eigenvalues --    2.23920   2.25018   2.26213   2.30932   2.35442
 Alpha virt. eigenvalues --    2.36384   2.44235   2.48495   2.50908   2.61358
 Alpha virt. eigenvalues --    2.67738   2.78661   2.82614   2.85258   2.89263
 Alpha virt. eigenvalues --    2.91305   2.93758   2.93789   2.94284   2.98626
 Alpha virt. eigenvalues --    3.06399   3.07261   3.09060   3.28848   3.31331
 Alpha virt. eigenvalues --    3.35948   3.37885   3.45600   3.56151   3.61810
 Alpha virt. eigenvalues --    3.74038   3.83920   3.94832   3.95776   3.96638
 Alpha virt. eigenvalues --    3.97408   3.97598   4.03219   4.04893   4.11260
 Alpha virt. eigenvalues --    4.15406   4.17720   4.21346   4.23708   4.31260
 Alpha virt. eigenvalues --    4.32872   4.36320   4.41586   4.99213   5.07178
 Alpha virt. eigenvalues --    5.07592   5.14555   6.50387   6.53566   6.56311
 Alpha virt. eigenvalues --    6.61341   6.65814   6.71161   6.86847   7.00163
 Alpha virt. eigenvalues --    7.07264  23.79731  24.16364  24.24266  24.35285
 Alpha virt. eigenvalues --   24.40915  24.49587  67.10274  67.12695  67.15463
  Beta  occ. eigenvalues --  -24.62039 -24.61762 -24.61584 -10.12943 -10.12358
  Beta  occ. eigenvalues --  -10.11022 -10.03550 -10.02723 -10.02354  -1.11003
  Beta  occ. eigenvalues --   -1.10214  -1.09664  -0.70672  -0.59493  -0.59088
  Beta  occ. eigenvalues --   -0.47880  -0.47638  -0.41661  -0.39816  -0.37470
  Beta  occ. eigenvalues --   -0.34571  -0.33862  -0.32412  -0.30916  -0.29519
  Beta  occ. eigenvalues --   -0.28716  -0.27359  -0.24073  -0.21643  -0.19161
  Beta  occ. eigenvalues --   -0.17700  -0.06985  -0.06484
  Beta virt. eigenvalues --    0.12092   0.12871   0.13571   0.16631   0.17632
  Beta virt. eigenvalues --    0.17741   0.18529   0.20064   0.21264   0.22685
  Beta virt. eigenvalues --    0.22811   0.23289   0.24058   0.24802   0.25178
  Beta virt. eigenvalues --    0.26208   0.26573   0.27326   0.27369   0.27743
  Beta virt. eigenvalues --    0.28908   0.28948   0.29659   0.30288   0.31702
  Beta virt. eigenvalues --    0.31832   0.33941   0.34966   0.35652   0.36959
  Beta virt. eigenvalues --    0.37548   0.39168   0.41885   0.42622   0.43790
  Beta virt. eigenvalues --    0.45552   0.46112   0.46815   0.48285   0.49200
  Beta virt. eigenvalues --    0.50040   0.51403   0.52278   0.52936   0.53683
  Beta virt. eigenvalues --    0.54692   0.57717   0.57999   0.59517   0.60150
  Beta virt. eigenvalues --    0.62439   0.66764   0.69345   0.70090   0.72271
  Beta virt. eigenvalues --    0.73500   0.76016   0.76213   0.76481   0.78557
  Beta virt. eigenvalues --    0.80663   0.81099   0.81615   0.86784   0.88199
  Beta virt. eigenvalues --    0.92063   0.92398   0.95407   0.97864   1.00373
  Beta virt. eigenvalues --    1.02690   1.04031   1.06246   1.06442   1.10007
  Beta virt. eigenvalues --    1.11688   1.15083   1.18446   1.18815   1.20798
  Beta virt. eigenvalues --    1.21654   1.23944   1.28456   1.34494   1.35090
  Beta virt. eigenvalues --    1.40373   1.45276   1.51316   1.57291   1.58657
  Beta virt. eigenvalues --    1.61340   1.61905   1.62688   1.63055   1.63136
  Beta virt. eigenvalues --    1.69416   1.70674   1.73077   1.73600   1.74944
  Beta virt. eigenvalues --    1.76239   1.79667   1.80368   1.85381   1.88672
  Beta virt. eigenvalues --    1.89284   1.94656   2.01973   2.05534   2.09891
  Beta virt. eigenvalues --    2.11708   2.12436   2.13903   2.16857   2.18777
  Beta virt. eigenvalues --    2.21552   2.24331   2.25158   2.26441   2.31114
  Beta virt. eigenvalues --    2.36031   2.37531   2.44405   2.49304   2.52241
  Beta virt. eigenvalues --    2.61568   2.67942   2.78968   2.83657   2.85612
  Beta virt. eigenvalues --    2.89497   2.91562   2.93977   2.94355   2.94560
  Beta virt. eigenvalues --    3.00686   3.07169   3.07500   3.11195   3.30208
  Beta virt. eigenvalues --    3.31377   3.36173   3.38061   3.45694   3.56393
  Beta virt. eigenvalues --    3.62008   3.74342   3.84238   3.95086   3.95806
  Beta virt. eigenvalues --    3.96636   3.97492   3.97853   4.03345   4.05083
  Beta virt. eigenvalues --    4.11760   4.15487   4.17701   4.21476   4.23724
  Beta virt. eigenvalues --    4.31603   4.33186   4.36703   4.41934   4.99307
  Beta virt. eigenvalues --    5.07226   5.08238   5.14640   6.50441   6.53581
  Beta virt. eigenvalues --    6.56397   6.61353   6.65813   6.71171   6.86877
  Beta virt. eigenvalues --    7.00178   7.07308  23.79916  24.16388  24.24618
  Beta virt. eigenvalues --   24.35438  24.41300  24.49887  67.10280  67.12691
  Beta virt. eigenvalues --   67.15474
          Condensed to atoms (all electrons):
               1          2          3          4          5          6
     1  C   10.071680  -1.828352   1.401607  -0.888344  -1.085746  -1.755248
     2  C   -1.828352  10.743424  -1.115568  -2.311614  -0.957583   1.327790
     3  C    1.401607  -1.115568  11.040742  -1.581188  -1.852985  -1.765270
     4  C   -0.888344  -2.311614  -1.581188  11.135522  -1.330937   1.174290
     5  C   -1.085746  -0.957583  -1.852985  -1.330937  12.812005  -1.869574
     6  C   -1.755248   1.327790  -1.765270   1.174290  -1.869574   9.174959
     7  H    0.558999  -0.101339   0.094329   0.004935  -0.055839  -0.207661
     8  H   -0.105681   0.544001  -0.171589  -0.062493   0.014602   0.069121
     9  F    0.023681  -0.293191   0.649890  -0.363054  -0.019991  -0.025692
    10  F   -0.020733  -0.019729  -0.346133   0.565336  -0.229522  -0.007408
    11  F   -0.407712   0.069837  -0.051978   0.040414  -0.344792   0.690889
    12  H   -0.041975   0.003927  -0.043010  -0.095653   0.604342  -0.142000
               7          8          9         10         11         12
     1  C    0.558999  -0.105681   0.023681  -0.020733  -0.407712  -0.041975
     2  C   -0.101339   0.544001  -0.293191  -0.019729   0.069837   0.003927
     3  C    0.094329  -0.171589   0.649890  -0.346133  -0.051978  -0.043010
     4  C    0.004935  -0.062493  -0.363054   0.565336   0.040414  -0.095653
     5  C   -0.055839   0.014602  -0.019991  -0.229522  -0.344792   0.604342
     6  C   -0.207661   0.069121  -0.025692  -0.007408   0.690889  -0.142000
     7  H    0.588893  -0.018928   0.000709   0.000554  -0.028402  -0.001563
     8  H   -0.018928   0.588778  -0.030309  -0.001326   0.000647   0.001893
     9  F    0.000709  -0.030309   9.277353   0.009519   0.000204  -0.000800
    10  F    0.000554  -0.001326   0.009519   9.301524  -0.000946  -0.024173
    11  F   -0.028402   0.000647   0.000204  -0.000946   9.254231  -0.021497
    12  H   -0.001563   0.001893  -0.000800  -0.024173  -0.021497   0.562915
          Atomic-Atomic Spin Densities.
               1          2          3          4          5          6
     1  C    0.717727  -0.629159   0.096611   0.177032  -0.382638   0.179326
     2  C   -0.629159   1.464997  -0.260614  -0.359294   0.401103  -0.153422
     3  C    0.096611  -0.260614   0.065258   0.169793  -0.198013   0.031072
     4  C    0.177032  -0.359294   0.169793   0.708755  -0.503035   0.067270
     5  C   -0.382638   0.401103  -0.198013  -0.503035   1.247301  -0.199356
     6  C    0.179326  -0.153422   0.031072   0.067270  -0.199356   0.050768
     7  H    0.008217  -0.003354  -0.000559   0.000107  -0.000750  -0.000238
     8  H   -0.007776   0.024259  -0.011505   0.002189  -0.003690   0.001324
     9  F   -0.003571   0.018585   0.003412  -0.019536   0.010207  -0.003068
    10  F   -0.009276   0.020736  -0.016625  -0.082392   0.050393  -0.004374
    11  F   -0.021535   0.009627  -0.001673  -0.002988   0.019584  -0.001156
    12  H    0.003791  -0.004021   0.003731  -0.019449   0.027505  -0.009179
               7          8          9         10         11         12
     1  C    0.008217  -0.007776  -0.003571  -0.009276  -0.021535   0.003791
     2  C   -0.003354   0.024259   0.018585   0.020736   0.009627  -0.004021
     3  C   -0.000559  -0.011505   0.003412  -0.016625  -0.001673   0.003731
     4  C    0.000107   0.002189  -0.019536  -0.082392  -0.002988  -0.019449
     5  C   -0.000750  -0.003690   0.010207   0.050393   0.019584   0.027505
     6  C   -0.000238   0.001324  -0.003068  -0.004374  -0.001156  -0.009179
     7  H   -0.024547   0.002085   0.000130  -0.000040   0.000506   0.000094
     8  H    0.002085  -0.055395   0.001706   0.000161   0.000167  -0.000256
     9  F    0.000130   0.001706  -0.009571   0.002651  -0.000000   0.000080
    10  F   -0.000040   0.000161   0.002651   0.038435   0.000109   0.001689
    11  F    0.000506   0.000167  -0.000000   0.000109  -0.005744   0.001235
    12  H    0.000094  -0.000256   0.000080   0.001689   0.001235  -0.045874
 Mulliken charges and spin densities:
               1          2
     1  C    0.077823   0.128751
     2  C   -0.061603   0.529444
     3  C   -0.258847  -0.119111
     4  C   -0.287215   0.138453
     5  C    0.316020   0.468609
     6  C   -0.664197  -0.041032
     7  H    0.165315  -0.018350
     8  H    0.171286  -0.046731
     9  F   -0.228320   0.001024
    10  F   -0.226961   0.001466
    11  F   -0.200895  -0.001867
    12  H    0.197594  -0.040655
 Sum of Mulliken charges =  -1.00000   1.00000
 Mulliken charges and spin densities with hydrogens summed into heavy atoms:
               1          2
     1  C    0.243139   0.110400
     2  C    0.109682   0.482713
     3  C   -0.258847  -0.119111
     4  C   -0.287215   0.138453
     5  C    0.513615   0.427954
     6  C   -0.664197  -0.041032
     9  F   -0.228320   0.001024
    10  F   -0.226961   0.001466
    11  F   -0.200895  -0.001867
 Electronic spatial extent (au):  <R**2>=           1160.6901
 Charge=             -1.0000 electrons
 Dipole moment (field-independent basis, Debye):
    X=              1.3010    Y=              0.6328    Z=              0.0000  Tot=              1.4467
 Quadrupole moment (field-independent basis, Debye-Ang):
   XX=            -60.9059   YY=            -70.2509   ZZ=            -57.2390
   XY=             -1.8654   XZ=             -0.0000   YZ=              0.0000
 Traceless Quadrupole moment (field-independent basis, Debye-Ang):
   XX=              1.8927   YY=             -7.4523   ZZ=              5.5596
   XY=             -1.8654   XZ=             -0.0000   YZ=              0.0000
 Octapole moment (field-independent basis, Debye-Ang**2):
  XXX=             45.4241  YYY=             17.5261  ZZZ=              0.0000  XYY=             14.3185
  XXY=             14.3064  XXZ=              0.0000  XZZ=              8.5189  YZZ=              3.9760
  YYZ=              0.0000  XYZ=             -0.0000
 Hexadecapole moment (field-independent basis, Debye-Ang**3):
 XXXX=           -535.5904 YYYY=           -915.7761 ZZZZ=            -78.4052 XXXY=            -57.3177
 XXXZ=             -0.0000 YYYX=            -44.5087 YYYZ=             -0.0000 ZZZX=             -0.0000
 ZZZY=              0.0000 XXYY=           -227.5402 XXZZ=           -110.7860 YYZZ=           -148.4933
 XXYZ=              0.0000 YYXZ=             -0.0000 ZZXY=             -7.7095
 N-N= 4.281102534582D+02 E-N=-2.118948637536D+03  KE= 5.284069177882D+02
                          Isotropic Fermi Contact Couplings
        Atom                 a.u.       MegaHertz       Gauss      10(-4) cm-1
     1  C(13)             -0.00176      -1.98395      -0.70792      -0.66177
     2  C(13)              0.01803      20.26499       7.23105       6.75967
     3  C(13)             -0.02501     -28.12038     -10.03405      -9.37995
     4  C(13)              0.00580       6.52009       2.32653       2.17487
     5  C(13)              0.01103      12.40101       4.42499       4.13653
     6  C(13)             -0.01889     -21.23214      -7.57615      -7.08228
     7  H(1)              -0.00286     -12.79556      -4.56577      -4.26814
     8  H(1)              -0.00682     -30.48407     -10.87747     -10.16839
     9  F(19)             -0.00268     -11.25888      -4.01745      -3.75556
    10  F(19)              0.00377      15.85259       5.65660       5.28785
    11  F(19)             -0.00245     -10.30833      -3.67827      -3.43849
    12  H(1)              -0.00563     -25.17812      -8.98418      -8.39852
 --------------------------------------------------------
       Center         ----  Spin Dipole Couplings  ----
                      3XX-RR        3YY-RR        3ZZ-RR
 --------------------------------------------------------
     1   Atom       -0.099369     -0.088170      0.187539
     2   Atom       -0.218998     -0.219744      0.438743
     3   Atom        0.027174      0.013961     -0.041134
     4   Atom       -0.148125     -0.138171      0.286296
     5   Atom       -0.170555     -0.167109      0.337663
     6   Atom        0.024166      0.013089     -0.037255
     7   Atom        0.007359     -0.007129     -0.000230
     8   Atom        0.010878     -0.017431      0.006553
     9   Atom        0.008848      0.027084     -0.035932
    10   Atom       -0.072579     -0.061145      0.133724
    11   Atom        0.002897      0.017009     -0.019906
    12   Atom        0.008516     -0.015335      0.006819
 --------------------------------------------------------
                        XY            XZ            YZ
 --------------------------------------------------------
     1   Atom        0.000303      0.000000     -0.000000
     2   Atom       -0.004452     -0.000000      0.000000
     3   Atom        0.002471     -0.000000      0.000000
     4   Atom       -0.001505      0.000000      0.000000
     5   Atom       -0.004160     -0.000000     -0.000000
     6   Atom        0.001122      0.000000      0.000000
     7   Atom        0.012858      0.000000      0.000000
     8   Atom       -0.026965     -0.000000      0.000000
     9   Atom        0.000458      0.000000      0.000000
    10   Atom       -0.006790     -0.000000     -0.000000
    11   Atom        0.000689     -0.000000     -0.000000
    12   Atom       -0.020852      0.000000     -0.000000
 --------------------------------------------------------


 ---------------------------------------------------------------------------------
              Anisotropic Spin Dipole Couplings in Principal Axis System
 ---------------------------------------------------------------------------------

       Atom             a.u.   MegaHertz   Gauss  10(-4) cm-1        Axes

              Baa    -0.0994   -13.336    -4.758    -4.448  0.9996 -0.0271 -0.0000
     1 C(13)  Bbb    -0.0882   -11.830    -4.221    -3.946  0.0271  0.9996  0.0000
              Bcc     0.1875    25.166     8.980     8.394  0.0000 -0.0000  1.0000
 
              Baa    -0.2238   -30.037   -10.718   -10.019  0.6769  0.7360  0.0000
     2 C(13)  Bbb    -0.2149   -28.838   -10.290    -9.619  0.7360 -0.6769  0.0000
              Bcc     0.4387    58.875    21.008    19.639 -0.0000  0.0000  1.0000
 
              Baa    -0.0411    -5.520    -1.970    -1.841  0.0000 -0.0000  1.0000
     3 C(13)  Bbb     0.0135     1.813     0.647     0.605 -0.1780  0.9840  0.0000
              Bcc     0.0276     3.706     1.323     1.236  0.9840  0.1780  0.0000
 
              Baa    -0.1483   -19.907    -7.103    -6.640  0.9892  0.1463 -0.0000
     4 C(13)  Bbb    -0.1379   -18.511    -6.605    -6.175 -0.1463  0.9892 -0.0000
              Bcc     0.2863    38.418    13.709    12.815  0.0000  0.0000  1.0000
 
              Baa    -0.1733   -23.260    -8.300    -7.759  0.8315  0.5556  0.0000
     5 C(13)  Bbb    -0.1643   -22.051    -7.868    -7.356 -0.5556  0.8315 -0.0000
              Bcc     0.3377    45.311    16.168    15.114 -0.0000 -0.0000  1.0000
 
              Baa    -0.0373    -4.999    -1.784    -1.668 -0.0000 -0.0000  1.0000
     6 C(13)  Bbb     0.0130     1.741     0.621     0.581 -0.0998  0.9950 -0.0000
              Bcc     0.0243     3.258     1.162     1.087  0.9950  0.0998  0.0000
 
              Baa    -0.0146    -7.813    -2.788    -2.606 -0.5046  0.8634  0.0000
     7 H(1)   Bbb    -0.0002    -0.123    -0.044    -0.041 -0.0000 -0.0000  1.0000
              Bcc     0.0149     7.936     2.832     2.647  0.8634  0.5046  0.0000
 
              Baa    -0.0337   -17.997    -6.422    -6.003  0.5173  0.8558  0.0000
     8 H(1)   Bbb     0.0066     3.496     1.248     1.166  0.0000 -0.0000  1.0000
              Bcc     0.0272    14.501     5.174     4.837  0.8558 -0.5173 -0.0000
 
              Baa    -0.0359   -18.046    -6.439    -6.019 -0.0000 -0.0000  1.0000
     9 F(19)  Bbb     0.0088     4.438     1.584     1.480  0.9997 -0.0251  0.0000
              Bcc     0.0271    13.608     4.856     4.539  0.0251  0.9997  0.0000
 
              Baa    -0.0757   -38.038   -13.573   -12.688  0.9067  0.4219  0.0000
    10 F(19)  Bbb    -0.0580   -29.122   -10.391    -9.714 -0.4219  0.9067 -0.0000
              Bcc     0.1337    67.160    23.964    22.402 -0.0000 -0.0000  1.0000
 
              Baa    -0.0199    -9.997    -3.567    -3.335  0.0000  0.0000  1.0000
    11 F(19)  Bbb     0.0029     1.438     0.513     0.480  0.9988 -0.0487 -0.0000
              Bcc     0.0170     8.559     3.054     2.855  0.0487  0.9988 -0.0000
 
              Baa    -0.0274   -14.636    -5.222    -4.882  0.5018  0.8650  0.0000
    12 H(1)   Bbb     0.0068     3.638     1.298     1.214 -0.0000  0.0000  1.0000
              Bcc     0.0206    10.997     3.924     3.668  0.8650 -0.5018  0.0000
 

 ---------------------------------------------------------------------------------

 No NMR shielding tensors so no spin-rotation constants.
 Leave Link  601 at Wed Jan 29 15:58:43 2025, MaxMem=   104857600 cpu:               0.1 elap:               0.1
 (Enter /sw/cluster/pub/apps//g16/l701.exe)
 ... and contract with generalized density number  0.
 Compute integral first derivatives.
 Leave Link  701 at Wed Jan 29 15:58:43 2025, MaxMem=   104857600 cpu:               0.0 elap:               0.1
 (Enter /sw/cluster/pub/apps//g16/l702.exe)
 L702 exits ... SP integral derivatives will be done elsewhere.
 Leave Link  702 at Wed Jan 29 15:58:43 2025, MaxMem=   104857600 cpu:               0.0 elap:               0.0
 (Enter /sw/cluster/pub/apps//g16/l703.exe)
 Integral derivatives from FoFJK, PRISM(SPDF).
 Compute integral first derivatives, UseDBF=F ICtDFT=           0.
 Calling FoFJK, ICntrl=      2127 FMM=F ISym2X=0 I1Cent= 0 IOpClX= 1 NMat=1 NMatS=1 NMatT=0.
 FoFJK:  IHMeth= 1 ICntrl=    2127 DoSepK=F KAlg= 0 I1Cent=           0 FoldK=F
 IRaf=         0 NMat=       1 IRICut=       1 DoRegI=T DoRafI=F ISym2E= 0 IDoP0=0 IntGTp=1.
 FoFCou: FMM=F IPFlag=           0 FMFlag=      100000 FMFlg1=         800
         NFxFlg=           0 DoJE=F BraDBF=F KetDBF=F FulRan=T
         wScrn=  0.000000 ICntrl=      2127 IOpCl=  1 I1Cent=           0 NGrid=           0
         NMat0=    1 NMatS0=      1 NMatT0=    0 NMatD0=    1 NMtDS0=    0 NMtDT0=    0
 Symmetry not used in FoFCou.
 Leave Link  703 at Wed Jan 29 15:58:55 2025, MaxMem=   104857600 cpu:              12.0 elap:              12.1
 (Enter /sw/cluster/pub/apps//g16/l716.exe)
 Dipole        = 5.11849332D-01 2.48979265D-01 1.89220190D-08
 -------------------------------------------------------------------
 Center     Atomic                   Forces (Hartrees/Bohr)
 Number     Number              X              Y              Z
 -------------------------------------------------------------------
      1        6          -0.011190193    0.047975643    0.000000001
      2        6           0.028235744   -0.041741310    0.000000000
      3        6          -0.034764181    0.027412544   -0.000000001
      4        6           0.044620580   -0.041447736    0.000000001
      5        6          -0.025207581    0.041885412    0.000000001
      6        6           0.024394236   -0.023704174   -0.000000002
      7        1           0.000434028    0.001759677   -0.000000000
      8        1           0.000232001   -0.000889006   -0.000000000
      9        9           0.001373748   -0.020391070    0.000000000
     10        9          -0.026589903   -0.011436068   -0.000000000
     11        9          -0.001687054    0.019852493    0.000000000
     12        1           0.000148575    0.000723594   -0.000000000
 -------------------------------------------------------------------
 Cartesian Forces:  Max     0.047975643 RMS     0.020975708
 Leave Link  716 at Wed Jan 29 15:58:55 2025, MaxMem=   104857600 cpu:               0.0 elap:               0.0
 (Enter /sw/cluster/pub/apps//g16/l103.exe)

 GradGradGradGradGradGradGradGradGradGradGradGradGradGradGradGradGradGrad
 Berny optimization.
 FormGI is forming the generalized inverse of G from B-inverse, IUseBI=4.
 Internal  Forces:  Max     0.045098995 RMS     0.011272177
 Search for a local minimum.
 Step number   1 out of a maximum of   64
 All quantities printed in internal units (Hartrees-Bohrs-Radians)
 RMS Force = .11272D-01 SwitMx=.10000D-02 MixMth= 1
 Mixed Optimization -- RFO/linear search
 Second derivative matrix not updated -- first step.
 ITU=  0
     Eigenvalues ---    0.02250   0.02265   0.02274   0.02280   0.02292
     Eigenvalues ---    0.02295   0.02305   0.02313   0.02315   0.16000
     Eigenvalues ---    0.16000   0.16000   0.22383   0.23506   0.24613
     Eigenvalues ---    0.25000   0.25000   0.25000   0.35541   0.35641
     Eigenvalues ---    0.35645   0.43547   0.43899   0.47635   0.48120
     Eigenvalues ---    0.48490   0.48728   0.57146   0.58287   0.58983
 RFO step:  Lambda=-1.40613917D-02 EMin= 2.24993700D-02
 Linear search not attempted -- first point.
 Iteration  1 RMS(Cart)=  0.02704230 RMS(Int)=  0.00026143
 Iteration  2 RMS(Cart)=  0.00039470 RMS(Int)=  0.00001985
 Iteration  3 RMS(Cart)=  0.00000007 RMS(Int)=  0.00001985
 ITry= 1 IFail=0 DXMaxC= 7.62D-02 DCOld= 1.00D+10 DXMaxT= 3.00D-01 DXLimC= 3.00D+00 Rises=F
 Variable       Old X    -DE/DX   Delta X   Delta X   Delta X     New X
                                 (Linear)    (Quad)   (Total)
    R1        2.62719   0.04510   0.00000   0.09306   0.09309   2.72028
    R2        2.61280  -0.00700   0.00000  -0.01389  -0.01388   2.59892
    R3        2.04647   0.00128   0.00000   0.00346   0.00346   2.04993
    R4        2.61068   0.02136   0.00000   0.04281   0.04284   2.65351
    R5        2.04806   0.00066   0.00000   0.00179   0.00179   2.04985
    R6        2.62396  -0.01362   0.00000  -0.02793  -0.02793   2.59602
    R7        2.52322   0.02037   0.00000   0.03412   0.03412   2.55734
    R8        2.61221   0.04346   0.00000   0.08636   0.08633   2.69854
    R9        2.51755   0.02871   0.00000   0.04754   0.04754   2.56509
   R10        2.61627   0.01551   0.00000   0.03091   0.03088   2.64716
   R11        2.04640   0.00023   0.00000   0.00063   0.00063   2.04703
   R12        2.53273   0.01986   0.00000   0.03392   0.03392   2.56665
    A1        2.07023   0.00113   0.00000   0.00718   0.00723   2.07746
    A2        2.11907   0.00075   0.00000   0.00394   0.00392   2.12299
    A3        2.09388  -0.00188   0.00000  -0.01113  -0.01115   2.08274
    A4        2.09400  -0.00900   0.00000  -0.03570  -0.03564   2.05836
    A5        2.11514   0.00515   0.00000   0.02160   0.02157   2.13672
    A6        2.07404   0.00385   0.00000   0.01410   0.01407   2.08811
    A7        2.09785   0.00622   0.00000   0.02499   0.02501   2.12286
    A8        2.10382  -0.00523   0.00000  -0.02050  -0.02051   2.08330
    A9        2.08152  -0.00100   0.00000  -0.00449  -0.00450   2.07703
   A10        2.10868   0.00247   0.00000   0.00946   0.00942   2.11809
   A11        2.08242   0.00339   0.00000   0.01281   0.01283   2.09525
   A12        2.09209  -0.00587   0.00000  -0.02226  -0.02224   2.06985
   A13        2.05862  -0.00662   0.00000  -0.02859  -0.02865   2.02997
   A14        2.10486   0.00403   0.00000   0.01842   0.01845   2.12331
   A15        2.11970   0.00259   0.00000   0.01017   0.01020   2.12990
   A16        2.13699   0.00579   0.00000   0.02266   0.02264   2.15963
   A17        2.07999  -0.00088   0.00000  -0.00369  -0.00368   2.07631
   A18        2.06620  -0.00491   0.00000  -0.01897  -0.01896   2.04724
    D1        0.00000  -0.00000   0.00000  -0.00000  -0.00000   0.00000
    D2        3.14159  -0.00000   0.00000  -0.00000   0.00000   3.14159
    D3       -3.14159  -0.00000   0.00000  -0.00000   0.00000  -3.14159
    D4       -0.00000   0.00000   0.00000  -0.00000   0.00000   0.00000
    D5       -0.00000   0.00000   0.00000   0.00000   0.00000   0.00000
    D6        3.14159  -0.00000   0.00000  -0.00000  -0.00000   3.14159
    D7        3.14159   0.00000   0.00000   0.00000   0.00000   3.14159
    D8        0.00000  -0.00000   0.00000  -0.00000  -0.00000   0.00000
    D9       -0.00000   0.00000   0.00000   0.00000   0.00000   0.00000
   D10        3.14159   0.00000   0.00000   0.00000   0.00000   3.14159
[...]
    A2        2.11934   0.00003   0.00000   0.00029   0.00029   2.11963
    A3        2.08451  -0.00005   0.00000  -0.00049  -0.00049   2.08403
    A4        2.03127  -0.00000   0.00000  -0.00006  -0.00006   2.03120
    A5        2.14773  -0.00000   0.00000   0.00004   0.00004   2.14777
    A6        2.10419   0.00000   0.00000   0.00002   0.00002   2.10421
    A7        2.14189  -0.00001   0.00000  -0.00012  -0.00012   2.14177
    A8        2.06771   0.00002   0.00000   0.00009   0.00009   2.06780
    A9        2.07359  -0.00001   0.00000   0.00002   0.00002   2.07361
   A10        2.12972   0.00001   0.00000   0.00016   0.00016   2.12988
   A11        2.09586  -0.00003   0.00000  -0.00025  -0.00025   2.09562
   A12        2.05760   0.00002   0.00000   0.00009   0.00009   2.05769
   A13        1.99668  -0.00001   0.00000  -0.00011  -0.00011   1.99656
   A14        2.13524   0.00002   0.00000   0.00026   0.00026   2.13549
   A15        2.15127  -0.00001   0.00000  -0.00014  -0.00014   2.15113
   A16        2.18749  -0.00001   0.00000  -0.00006  -0.00006   2.18742
   A17        2.06246   0.00003   0.00000   0.00018   0.00018   2.06263
   A18        2.03324  -0.00002   0.00000  -0.00012  -0.00012   2.03313
    D1        0.00000   0.00000   0.00000  -0.00000  -0.00000   0.00000
    D2        3.14159   0.00000   0.00000   0.00000   0.00000   3.14159
    D3       -3.14159   0.00000   0.00000  -0.00000  -0.00000   3.14159
    D4       -0.00000   0.00000   0.00000   0.00000   0.00000   0.00000
    D5        0.00000  -0.00000   0.00000  -0.00000  -0.00000   0.00000
    D6        3.14159  -0.00000   0.00000  -0.00000   0.00000   3.14159
    D7        3.14159  -0.00000   0.00000  -0.00000  -0.00000   3.14159
    D8        0.00000  -0.00000   0.00000  -0.00000  -0.00000  -0.00000
    D9       -0.00000  -0.00000   0.00000   0.00000   0.00000   0.00000
   D10        3.14159   0.00000   0.00000   0.00000   0.00000   3.14159
   D11        3.14159  -0.00000   0.00000  -0.00000   0.00000   3.14159
   D12       -0.00000  -0.00000   0.00000  -0.00000   0.00000   0.00000
   D13       -0.00000   0.00000   0.00000   0.00000   0.00000   0.00000
   D14        3.14159  -0.00000   0.00000  -0.00000  -0.00000   3.14159
   D15        3.14159  -0.00000   0.00000   0.00000   0.00000  -3.14159
   D16       -0.00000  -0.00000   0.00000  -0.00000  -0.00000  -0.00000
   D17        0.00000  -0.00000   0.00000  -0.00000  -0.00000   0.00000
   D18        3.14159   0.00000   0.00000   0.00000   0.00000  -3.14159
   D19       -3.14159   0.00000   0.00000  -0.00000  -0.00000  -3.14159
   D20        0.00000   0.00000   0.00000   0.00000   0.00000   0.00000
   D21       -0.00000   0.00000   0.00000   0.00000   0.00000   0.00000
   D22        3.14159   0.00000   0.00000   0.00000   0.00000   3.14159
   D23        3.14159  -0.00000   0.00000  -0.00000  -0.00000   3.14159
   D24       -0.00000   0.00000   0.00000  -0.00000  -0.00000  -0.00000
         Item               Value     Threshold  Converged?
 Maximum Force            0.000139     0.000450     YES
 RMS     Force            0.000039     0.000300     YES
 Maximum Displacement     0.000474     0.001800     YES
 RMS     Displacement     0.000145     0.001200     YES
 Predicted change in Energy=-1.593670D-07
 Optimization completed.
    -- Stationary point found.
                           ----------------------------
                           !   Optimized Parameters   !
                           ! (Angstroms and Degrees)  !
 --------------------------                            --------------------------
 ! Name  Definition              Value          Derivative Info.                !
 --------------------------------------------------------------------------------
 ! R1    R(1,2)                  1.4452         -DE/DX =   -0.0001              !
 ! R2    R(1,6)                  1.3677         -DE/DX =    0.0                 !
 ! R3    R(1,7)                  1.0843         -DE/DX =    0.0                 !
 ! R4    R(2,3)                  1.4078         -DE/DX =    0.0                 !
 ! R5    R(2,8)                  1.0812         -DE/DX =    0.0                 !
 ! R6    R(3,4)                  1.3639         -DE/DX =    0.0                 !
 ! R7    R(3,9)                  1.3662         -DE/DX =   -0.0001              !
 ! R8    R(4,5)                  1.4324         -DE/DX =   -0.0001              !
 ! R9    R(4,10)                 1.3675         -DE/DX =   -0.0001              !
 ! R10   R(5,6)                  1.402          -DE/DX =    0.0001              !
 ! R11   R(5,12)                 1.0799         -DE/DX =    0.0                 !
 ! R12   R(6,11)                 1.3738         -DE/DX =    0.0001              !
 ! A1    A(2,1,6)              119.1369         -DE/DX =    0.0                 !
 ! A2    A(2,1,7)              121.4293         -DE/DX =    0.0                 !
 ! A3    A(6,1,7)              119.4338         -DE/DX =   -0.0001              !
 ! A4    A(1,2,3)              116.3831         -DE/DX =    0.0                 !
 ! A5    A(1,2,8)              123.0558         -DE/DX =    0.0                 !
 ! A6    A(3,2,8)              120.5611         -DE/DX =    0.0                 !
 ! A7    A(2,3,4)              122.7213         -DE/DX =    0.0                 !
 ! A8    A(2,3,9)              118.4708         -DE/DX =    0.0                 !
 ! A9    A(4,3,9)              118.8079         -DE/DX =    0.0                 !
 ! A10   A(3,4,5)              122.0239         -DE/DX =    0.0                 !
 ! A11   A(3,4,10)             120.0842         -DE/DX =    0.0                 !
 ! A12   A(5,4,10)             117.8919         -DE/DX =    0.0                 !
 ! A13   A(4,5,6)              114.4011         -DE/DX =    0.0                 !
 ! A14   A(4,5,12)             122.3401         -DE/DX =    0.0                 !
 ! A15   A(6,5,12)             123.2588         -DE/DX =    0.0                 !
 ! A16   A(1,6,5)              125.3337         -DE/DX =    0.0                 !
 ! A17   A(1,6,11)             118.17           -DE/DX =    0.0                 !
 ! A18   A(5,6,11)             116.4963         -DE/DX =    0.0                 !
 ! D1    D(6,1,2,3)              0.0            -DE/DX =    0.0                 !
 ! D2    D(6,1,2,8)            180.0            -DE/DX =    0.0                 !
 ! D3    D(7,1,2,3)            180.0            -DE/DX =    0.0                 !
 ! D4    D(7,1,2,8)              0.0            -DE/DX =    0.0                 !
 ! D5    D(2,1,6,5)              0.0            -DE/DX =    0.0                 !
 ! D6    D(2,1,6,11)           180.0            -DE/DX =    0.0                 !
 ! D7    D(7,1,6,5)            180.0            -DE/DX =    0.0                 !
 ! D8    D(7,1,6,11)             0.0            -DE/DX =    0.0                 !
 ! D9    D(1,2,3,4)              0.0            -DE/DX =    0.0                 !
 ! D10   D(1,2,3,9)            180.0            -DE/DX =    0.0                 !
 ! D11   D(8,2,3,4)            180.0            -DE/DX =    0.0                 !
 ! D12   D(8,2,3,9)              0.0            -DE/DX =    0.0                 !
 ! D13   D(2,3,4,5)              0.0            -DE/DX =    0.0                 !
 ! D14   D(2,3,4,10)           180.0            -DE/DX =    0.0                 !
 ! D15   D(9,3,4,5)           -180.0            -DE/DX =    0.0                 !
 ! D16   D(9,3,4,10)             0.0            -DE/DX =    0.0                 !
 ! D17   D(3,4,5,6)              0.0            -DE/DX =    0.0                 !
 ! D18   D(3,4,5,12)          -180.0            -DE/DX =    0.0                 !
 ! D19   D(10,4,5,6)          -180.0            -DE/DX =    0.0                 !
 ! D20   D(10,4,5,12)            0.0            -DE/DX =    0.0                 !
 ! D21   D(4,5,6,1)              0.0            -DE/DX =    0.0                 !
 ! D22   D(4,5,6,11)           180.0            -DE/DX =    0.0                 !
 ! D23   D(12,5,6,1)           180.0            -DE/DX =    0.0                 !
 ! D24   D(12,5,6,11)            0.0            -DE/DX =    0.0                 !
 --------------------------------------------------------------------------------
 GradGradGradGradGradGradGradGradGradGradGradGradGradGradGradGradGradGrad

 Leave Link  103 at Wed Jan 29 16:11:55 2025, MaxMem=   104857600 cpu:               0.0 elap:               0.0
 (Enter /sw/cluster/pub/apps//g16/l9999.exe)

 ----------------------------------------------------------------------

 Electric dipole moment (input orientation):
 (Debye = 10**-18 statcoulomb cm , SI units = C m)
                  (au)            (Debye)         (10**-30 SI)
   Tot        0.655074D+00      0.166503D+01      0.555395D+01
   x          0.582499D+00      0.148056D+01      0.493863D+01
   y          0.299695D+00      0.761749D+00      0.254092D+01
   z          0.000000D+00      0.000000D+00      0.000000D+00

 Dipole polarizability, Alpha (input orientation).
 (esu units = cm**3 , SI units = C**2 m**2 J**-1)
 Alpha(0;0):
               (au)            (10**-24 esu)      (10**-40 SI)
   iso        0.110271D+03      0.163405D+02      0.181812D+02
   aniso      0.363501D+02      0.538654D+01      0.599333D+01
   xx         0.115910D+03      0.171761D+02      0.191110D+02
   yx        -0.149647D+02     -0.221755D+01     -0.246735D+01
   yy         0.935715D+02      0.138659D+02      0.154279D+02
   zx         0.263262D-04      0.390114D-05      0.434061D-05
   zy         0.000000D+00      0.000000D+00      0.000000D+00
   zz         0.121331D+03      0.179794D+02      0.200048D+02

 ----------------------------------------------------------------------

 Dipole orientation:
     6         -0.07240945          0.14073756          2.65835605
     6          1.04956513         -2.03997352          1.45677072
     6          1.05551465         -2.05153706         -1.20359703
     6          0.06657955         -0.12940636         -2.60744050
     6         -1.05599195          2.05246479         -1.46457100
     6         -1.04385689          2.02887862          1.18475519
     1         -0.15943056          0.30987493          4.69860412
     1          1.85214664         -3.59990054          2.50424346
     9          2.09653862         -4.07490942         -2.42322025
     9          0.12674751         -0.24635079         -5.18824716
     9         -2.10148048          4.08451477          2.36621094
     1         -1.84180345          3.57979696         -2.56663925

 Electric dipole moment (dipole orientation):
 (Debye = 10**-18 statcoulomb cm , SI units = C m)
                  (au)            (Debye)         (10**-30 SI)
   Tot        0.655074D+00      0.166503D+01      0.555395D+01
   x          0.000000D+00      0.000000D+00      0.000000D+00
   y          0.000000D+00      0.000000D+00      0.000000D+00
   z          0.655074D+00      0.166503D+01      0.555395D+01

 Dipole polarizability, Alpha (dipole orientation).
 (esu units = cm**3 , SI units = C**2 m**2 J**-1)
 Alpha(0;0):
               (au)            (10**-24 esu)      (10**-40 SI)
   iso        0.110271D+03      0.163405D+02      0.181812D+02
   aniso      0.363501D+02      0.538654D+01      0.599333D+01
   xx         0.119048D+03      0.176411D+02      0.196284D+02
   yx         0.443765D+01      0.657593D+00      0.731670D+00
   yy         0.112706D+03      0.167013D+02      0.185827D+02
   zx         0.813799D+01      0.120593D+01      0.134177D+01
   zy        -0.158173D+02     -0.234389D+01     -0.260793D+01
   zz         0.990590D+02      0.146790D+02      0.163326D+02

 ----------------------------------------------------------------------
 1\1\GINC-N02\Freq\UPBE1PBE\6-311++G(d,p)\C6H3F3(1-,2)\UNKNOWN\29-Jan-2
 025\0\\#P Geom=AllCheck Guess=TCheck SCRF=Check GenChk UPBE1PBE/6-311+
 +G(d,p) Freq\\1 2 4-DFB SP\\-1,2\C,1.2125718554,0.7180569179,-0.000000
 0032\C,1.2408893396,-0.7268266893,0.0000000143\C,-0.0077982133,-1.3770
 146945,0.0000000037\C,-1.1916985954,-0.6997341747,0.0000000036\C,-1.24
 79606571,0.7315483729,0.0000000168\C,0.0051012042,1.3604628008,-0.0000
 000024\H,2.1265608716,1.30149987,-0.0000000117\H,2.1584854265,-1.29871
 38051,0.0000000169\F,-0.0308057042,-2.7430051902,-0.0000000168\F,-2.37
 42575313,-1.3864257983,-0.0000000237\F,0.001364823,2.734286284,-0.0000
 000233\H,-2.1823723469,1.2729695914,0.0000000247\\Version=ES64L-G16Rev
 A.03\HF=-529.5289534\S2=0.759702\S2-1=0.\S2A=0.750054\RMSD=3.249e-09\R
 MSF=7.543e-05\ZeroPoint=0.0682215\Thermal=0.075662\Dipole=0.0252019,-0
 .0221764,0.\DipoleDeriv=-0.5230626,-0.0139932,0.0000003,-0.0729005,0.0
 245628,0.0000003,0.0000004,0.0000001,0.1275769,-0.5283319,0.0950989,0.
 0000002,0.140737,-0.2628131,-0.0000003,-0.0000002,-0.0000002,-0.910639
 5,0.6486671,-0.1577306,0.,0.10524,1.2092192,0.0000003,0.,0.,0.0788701,
 0.8576245,0.5013689,0.,0.426636,0.6942089,-0.0000002,0.0000002,0.,0.47
 18232,-0.9445346,-0.1324771,-0.0000001,-0.1293598,-0.5807663,0.0000001
 ,-0.0000003,0.,-0.819056,1.2846377,0.190488,-0.0000001,0.0098985,1.283
 1838,-0.0000001,0.0000001,0.,0.0369556,-0.0810867,-0.1128542,0.,-0.109
 6148,-0.0231355,0.,-0.0000001,0.,0.0951872,-0.0823429,0.0956879,0.,0.0
 939853,-0.020239,0.,0.,0.,0.2198618,-0.2279652,-0.0269991,0.,-0.062120
 7,-1.4008952,-0.0000003,0.,0.,-0.1288499,-1.0738389,-0.4953116,-0.0000
 002,-0.4942102,-0.5364952,0.,0.,0.,-0.2272594,-0.2611331,-0.0126631,0.
 ,0.0201836,-1.3956914,0.0000003,0.,0.,-0.1265215,-0.0686334,0.0693853,
 0.,0.0715256,0.0088609,0.,0.,0.,0.1820514\Polar=115.9102734,-14.964741
 8,93.5714783,0.0000263,-0.0000005,121.3311163\Quadrupole=1.8195605,-6.
 2727398,4.4531793,-1.7126828,0.,0.0000001\PG=C01 [X(C6H3F3)]\NImag=2\\
 0.72677444,-0.01746681,0.62441678,0.,-0.00000001,0.05106653,-0.0746528
 5,0.03770658,0.,0.64704815,0.02012000,-0.26492551,0.00000002,-0.084672
 21,0.58095657,0.,0.00000001,0.00249030,0.,-0.00000002,-0.00401528,-0.0
 1783139,-0.06531191,0.,-0.22225072,-0.00278925,0.00000001,0.65919088,-
 0.02926844,-0.02495985,-0.00000001,-0.09691178,-0.13281787,0.,-0.06188
 543,0.63915977,0.,0.,-0.01436532,0.,0.,-0.02076868,0.,0.,0.10511779,-0
 .00354144,0.02656858,0.,-0.06116180,-0.03065446,0.,-0.31676829,0.18459
 378,0.,0.71628254,0.03449602,-0.02643917,0.,-0.01499953,0.03691621,0.,
 0.13411116,-0.16970931,0.,-0.08392933,0.64959895,0.,0.,0.00080637,0.,0
 .,0.02140548,0.,0.,-0.05555743,0.,0.00000001,0.05255931,-0.08576673,-0
 .02605373,0.,0.02967217,0.03186198,0.,-0.02551848,0.01430006,0.,-0.094
 08194,0.06478519,0.,0.68068952,-0.03865087,0.02623677,0.,0.03109655,0.
 00488467,0.,-0.02119652,-0.02900140,0.,0.01834698,-0.28208035,0.,-0.07
 912259,0.60026700,0.,0.,0.01893869,0.,0.,-0.00812255,0.,0.,0.00410891,
 0.,0.,-0.00455193,0.,0.,0.00833958,-0.29827710,0.13060871,0.,-0.037318
 76,-0.02237487,0.,0.04006274,0.01199433,0.,0.00453735,-0.07412818,0.,-
 0.22896683,-0.00632203,0.,0.65123933,0.14124553,-0.15419114,0.00000001
 ,0.02110984,-0.03330953,-0.00000002,0.00870680,-0.00385417,0.00000001,
 -0.02804769,-0.02603072,0.,-0.10091494,-0.13311515,0.00000001,-0.03894
 004,0.59771276,0.,0.,-0.05374405,0.,0.,-0.00118800,0.,0.,0.00920967,0.
 ,0.,-0.00942861,0.,0.,-0.03245691,0.,-0.00000001,0.12082047,-0.2589460
 9,-0.12610677,0.,0.00358348,0.00247235,0.,0.00201902,0.00090689,0.,0.0
 0016566,0.00112042,0.,-0.00112083,0.00491456,0.,-0.02187182,-0.0216392
 3,0.,0.27423938,-0.13104915,-0.13351406,0.,-0.02629675,-0.00938039,0.,
 0.00329442,-0.00353195,0.,0.00070086,-0.00111657,0.,0.00236073,-0.0003
 1775,0.,0.01266622,0.00745139,0.,0.13998294,0.13850890,0.,0.,-0.011162
 93,0.,0.,-0.00656131,0.,0.,0.00421999,0.,0.,0.00039256,0.,0.,0.0002987
 3,0.,0.,0.00482827,0.,0.,0.01190438,0.00528017,-0.00366323,0.,-0.27054
 248,0.13088484,0.,-0.01746254,0.01987636,0.,-0.00110959,-0.00412492,0.
 ,0.00122136,0.00006734,0.,-0.00059790,-0.00084449,0.,0.00045249,0.0007
 7407,0.,0.28237989,0.02707952,-0.00768463,0.,0.13261350,-0.13416269,0.
 ,-0.01258388,0.00823815,0.,-0.00157490,-0.00266664,0.,0.00165160,0.001
 35180,0.,-0.00540285,-0.00367611,0.,-0.00074106,0.00112208,0.,-0.14261
 492,0.13704173,0.,0.,-0.00715303,0.,0.,0.01219564,0.,0.,-0.00558077,0.
 ,0.,-0.00686434,0.,0.,0.00122412,0.,0.,0.00128942,0.,0.,0.00100195,0.,
 0.,-0.00175763,-0.00315303,0.00213655,0.,0.00504575,-0.04342390,0.,-0.
 07091235,-0.00133949,0.,0.00256369,0.03447261,0.,-0.00195003,0.0027461
 2,0.,-0.00595286,-0.00082888,0.,0.00010191,-0.00179890,0.,0.00264859,0
 .00148925,0.,0.06510561,-0.01020598,0.00163388,0.,0.00802037,-0.035703
 79,0.,-0.00508635,-0.28399736,0.,-0.01082966,-0.05017491,0.,-0.0021292
 2,-0.00521832,0.,0.01125346,0.00339182,0.,0.00010049,-0.00206503,0.,-0
 .00041201,0.00275653,0.,0.00361997,0.36521819,0.,0.,0.00477869,0.,0.,0
 .00167125,0.,0.,-0.03248664,0.,0.,0.01320643,0.,0.,0.00307303,0.,0.,-0
 .00174816,0.,0.,-0.00035839,0.,0.,-0.00109171,0.,0.,0.01987176,0.00799
 526,0.00569491,0.,-0.01944633,-0.00393334,0.,-0.02465294,-0.04048803,0
 .,-0.24429322,-0.09154035,0.,0.00187185,0.00153228,0.,-0.01456753,0.00
 006884,0.,-0.00042133,-0.00046140,0.,-0.00247196,-0.00186540,0.,0.0051
 6680,0.00658720,0.,0.28847614,0.00075598,0.00428343,0.,-0.00688767,-0.
 00839626,0.,0.01658952,0.00065516,0.,-0.09764143,-0.12574202,0.,-0.044
 28690,-0.01313589,0.,0.00138232,-0.00426794,0.,-0.00039024,0.00002747,
 0.,0.00012216,0.00008882,0.,0.00218623,0.01143422,0.,0.12919585,0.1365
 0474,0.,0.,-0.00055742,0.,0.,-0.00275598,0.,0.,0.00900624,0.,0.,-0.008
 60243,0.,0.,-0.00513633,0.,0.,0.00169124,0.,0.,-0.00124066,0.,0.,0.007
 27339,0.,0.,-0.00973779,0.,0.,0.00773585,0.00502645,0.04009560,0.,-0.0
 0118406,0.00284756,0.,-0.00513657,-0.00111565,0.,-0.00463231,0.0045020
 5,0.,0.00363075,-0.04468065,0.,-0.07319159,0.00112498,0.,0.00289691,-0
 .00078722,0.,0.00023515,0.00182977,0.,0.00102480,-0.00074349,0.,0.0004
 9483,-0.00250932,0.,0.06844786,0.00668133,-0.04238083,0.,-0.00244270,-
 0.00522711,0.,0.01180926,0.00335820,0.,-0.00614222,0.00517530,0.,0.007
 01842,-0.04016124,0.,-0.00958257,-0.25943047,0.,0.00010872,0.00240823,
 0.,-0.00016898,-0.00252364,0.,-0.00096417,-0.00490251,0.,-0.00431849,-
 0.00469893,0.,-0.00181286,0.34579076,0.,0.,0.00788027,0.,0.,0.00485509
 ,0.,0.,0.00000885,0.,0.,0.00721035,0.,0.,0.00371741,0.,0.,-0.03687106,
 0.,0.,-0.00694440,0.,0.,0.00208673,0.,0.,-0.00080591,0.,0.,-0.00114062
 ,0.,0.,0.02245145,-0.00290768,-0.00420848,0.,0.00120747,-0.00033871,0.
 ,-0.00073937,-0.00066260,0.,0.00203935,-0.00476513,0.,-0.27968080,0.13
 126883,0.,-0.01509502,0.01895926,0.,-0.00109879,0.00061418,0.,-0.00003
 317,0.00011939,0.,0.00031112,-0.00017478,0.,0.00184843,0.00148351,0.,0
 .00238779,-0.00018574,0.,0.29176067,-0.00373714,-0.00247566,0.,0.00166
 379,0.00116568,0.,-0.00565783,-0.00353938,0.,0.02860948,-0.00773076,0.
 ,0.13052942,-0.12971015,0.,-0.01115451,0.00931926,0.,-0.00072906,0.000
 40769,0.,0.00010380,0.00011460,0.,0.00170461,-0.00237272,0.,-0.0004720
 7,0.00324720,0.,0.00124923,0.00259224,0.,-0.14210972,0.12898199,0.,0.,
 0.00102191,0.,0.,0.00079404,0.,0.,-0.00291260,0.,0.,-0.01057575,0.,0.,
 0.01056726,0.,0.,-0.00240228,0.,0.,0.00362181,0.,0.,-0.00262378,0.,0.,
 0.00362743,0.,0.,0.00346452,0.,0.,-0.00244815,0.,0.,-0.00213442\\0.000
 04670,0.00015683,0.,-0.00002906,-0.00013922,0.,0.00002687,0.00019345,0
 .,0.00012872,-0.00006514,0.,0.00007987,0.00014867,0.,-0.00015359,0.000
 02328,0.,0.00001179,-0.00003807,0.,-0.00000518,0.00000030,0.,0.0000067
 5,-0.00013938,0.,-0.00012899,-0.00005503,0.,0.00001849,-0.00007020,0.,
 -0.00000237,-0.00001550,0.\\\@


 REVOLUTIONS HAVE NEVER LIGHTENED THE BURDEN OF TYRANNY:
 THEY HAVE MERELY SHIFTED IT TO OTHER SHOULDERS.
                                   -- G. B. SHAW (1903)
 Job cpu time:       0 days  0 hours  7 minutes 48.1 seconds.
 Elapsed time:       0 days  0 hours  7 minutes 48.9 seconds.
 File lengths (MBytes):  RWF=    134 Int=      0 D2E=      0 Chk=      6 Scr=      1
 Normal termination of Gaussian 16 at Wed Jan 29 16:11:55 2025.
