 Entering Gaussian System, Link 0=g16
 Initial command:
 /sw/cluster/pub/apps//g16/l1.exe "/data/natrosa/28467/Gau-3001.inp" -scrdir="/data/natrosa/28467/"
 Entering Link 1 = /sw/cluster/pub/apps//g16/l1.exe PID=      3002.
  
 Copyright (c) 1988,1990,1992,1993,1995,1998,2003,2009,2016,
            Gaussian, Inc.  All Rights Reserved.
  
 This is part of the Gaussian(R) 16 program.  It is based on
 the Gaussian(R) 09 system (copyright 2009, Gaussian, Inc.),
 the Gaussian(R) 03 system (copyright 2003, Gaussian, Inc.),
 the Gaussian(R) 98 system (copyright 1998, Gaussian, Inc.),
 the Gaussian(R) 94 system (copyright 1995, Gaussian, Inc.),
 the Gaussian 92(TM) system (copyright 1992, Gaussian, Inc.),
 the Gaussian 90(TM) system (copyright 1990, Gaussian, Inc.),
 the Gaussian 88(TM) system (copyright 1988, Gaussian, Inc.),
 the Gaussian 86(TM) system (copyright 1986, Carnegie Mellon
 University), and the Gaussian 82(TM) system (copyright 1983,
 Carnegie Mellon University). Gaussian is a federally registered
 trademark of Gaussian, Inc.
  
 This software contains proprietary and confidential information,
 including trade secrets, belonging to Gaussian, Inc.
  
 This software is provided under written license and may be
 used, copied, transmitted, or stored only in accord with that
 written license.
  
 The following legend is applicable only to US Government
 contracts under FAR:
  
                    RESTRICTED RIGHTS LEGEND
  
 Use, reproduction and disclosure by the US Government is
 subject to restrictions as set forth in subparagraphs (a)
 and (c) of the Commercial Computer Software - Restricted
 Rights clause in FAR 52.227-19.
  
 Gaussian, Inc.
 340 Quinnipiac St., Bldg. 40, Wallingford CT 06492
  
  
 ---------------------------------------------------------------
 Warning -- This program may not be used in any manner that
 competes with the business of Gaussian, Inc. or will provide
 assistance to any competitor of Gaussian, Inc.  The licensee
 of this program is prohibited from giving any competitor of
 Gaussian, Inc. access to this program.  By using this program,
 the user acknowledges that Gaussian, Inc. is engaged in the
 business of creating and licensing software in the field of
 computational chemistry and represents and warrants to the
 licensee that it is not a competitor of Gaussian, Inc. and that
 it will not use this program in any manner prohibited above.
 ---------------------------------------------------------------
  

 Cite this work as:
 Gaussian 16, Revision A.03,
 M. J. Frisch, G. W. Trucks, H. B. Schlegel, G. E. Scuseria, 
 M. A. Robb, J. R. Cheeseman, G. Scalmani, V. Barone, 
 G. A. Petersson, H. Nakatsuji, X. Li, M. Caricato, A. V. Marenich, 
 J. Bloino, B. G. Janesko, R. Gomperts, B. Mennucci, H. P. Hratchian, 
 J. V. Ortiz, A. F. Izmaylov, J. L. Sonnenberg, D. Williams-Young, 
 F. Ding, F. Lipparini, F. Egidi, J. Goings, B. Peng, A. Petrone, 
 T. Henderson, D. Ranasinghe, V. G. Zakrzewski, J. Gao, N. Rega, 
 G. Zheng, W. Liang, M. Hada, M. Ehara, K. Toyota, R. Fukuda, 
 J. Hasegawa, M. Ishida, T. Nakajima, Y. Honda, O. Kitao, H. Nakai, 
 T. Vreven, K. Throssell, J. A. Montgomery, Jr., J. E. Peralta, 
 F. Ogliaro, M. J. Bearpark, J. J. Heyd, E. N. Brothers, K. N. Kudin, 
 V. N. Staroverov, T. A. Keith, R. Kobayashi, J. Normand, 
 K. Raghavachari, A. P. Rendell, J. C. Burant, S. S. Iyengar, 
 J. Tomasi, M. Cossi, J. M. Millam, M. Klene, C. Adamo, R. Cammi, 
 J. W. Ochterski, R. L. Martin, K. Morokuma, O. Farkas, 
 J. B. Foresman, and D. J. Fox, Gaussian, Inc., Wallingford CT, 2016.
 
 ******************************************
 Gaussian 16:  ES64L-G16RevA.03 25-Dec-2016
                29-Jan-2025 
 ******************************************
 %chk=1-2-4-TFB-CAT.chk
 --------------------------------------------------------
 #p opt freq PBE1PBE/6-311++G(d,p) density=current nosymm
 --------------------------------------------------------
 1/18=20,19=15,26=3,38=1/1,3;
 2/9=110,12=2,15=1,17=6,18=5,40=1/2;
 3/5=4,6=6,7=1111,11=2,25=1,30=1,71=1,74=-13/1,2,3;
 4//1;
 5/5=2,38=5/2;
 6/7=2,8=2,9=2,10=2,22=-1,28=1/1;
 7/30=1/1,2,3,16;
 1/18=20,19=15,26=3/3(2);
 2/9=110,15=1/2;
 99//99;
 2/9=110,15=1/2;
 3/5=4,6=6,7=1111,11=2,25=1,30=1,71=1,74=-13/1,2,3;
 4/5=5,16=3,69=1/1;
 5/5=2,38=5/2;
 7/30=1/1,2,3,16;
 1/18=20,19=15,26=3/3(-5);
 2/9=110,15=1/2;
 6/7=2,8=2,9=2,10=2,19=2,22=-1,28=1/1;
 99/9=1/99;
 Leave Link    1 at Wed Jan 29 15:55:16 2025, MaxMem=           0 cpu:               0.0 elap:               0.0
 (Enter /sw/cluster/pub/apps//g16/l101.exe)
 ------------
 1 2 4-DFB SP
 ------------
 Symbolic Z-matrix:
 Charge =  1 Multiplicity = 2
 C                     1.20726   0.69713  0. 
 C                     1.20024  -0.6931    0. 
 C                     0.00008  -1.37734   0. 
 C                    -1.20104  -0.68068  0. 
 C                    -1.21804   0.70153   0. 
 C                    -0.00313   1.36543   0. 
 H                     2.13431   1.25691  0. 
 H                     2.12454  -1.25902   0. 
 F                    -0.01976  -2.71242  0. 
 F                    -2.34808  -1.35829  0. 
 F                    -0.00945   2.70568  0. 
 H                    -2.15685   1.24128   0. 
 
 ITRead=  0  0  0  0  0  0  0  0  0  0  0  0
 MicOpt= -1 -1 -1 -1 -1 -1 -1 -1 -1 -1 -1 -1
 NAtoms=     12 NQM=       12 NQMF=       0 NMMI=      0 NMMIF=      0
                NMic=       0 NMicF=      0.
                    Isotopes and Nuclear Properties:
 (Nuclear quadrupole moments (NQMom) in fm**2, nuclear magnetic moments (NMagM)
  in nuclear magnetons)

  Atom         1           2           3           4           5           6           7           8           9          10
 IAtWgt=          12          12          12          12          12          12           1           1          19          19
 AtmWgt=  12.0000000  12.0000000  12.0000000  12.0000000  12.0000000  12.0000000   1.0078250   1.0078250  18.9984032  18.9984032
 NucSpn=           0           0           0           0           0           0           1           1           1           1
 AtZEff=  -0.0000000  -0.0000000  -0.0000000  -0.0000000  -0.0000000  -0.0000000  -0.0000000  -0.0000000  -0.0000000  -0.0000000
 NQMom=    0.0000000   0.0000000   0.0000000   0.0000000   0.0000000   0.0000000   0.0000000   0.0000000   0.0000000   0.0000000
 NMagM=    0.0000000   0.0000000   0.0000000   0.0000000   0.0000000   0.0000000   2.7928460   2.7928460   2.6288670   2.6288670
 AtZNuc=   6.0000000   6.0000000   6.0000000   6.0000000   6.0000000   6.0000000   1.0000000   1.0000000   9.0000000   9.0000000

  Atom        11          12
 IAtWgt=          19           1
 AtmWgt=  18.9984032   1.0078250
 NucSpn=           1           1
 AtZEff=  -0.0000000  -0.0000000
 NQMom=    0.0000000   0.0000000
 NMagM=    2.6288670   2.7928460
 AtZNuc=   9.0000000   1.0000000
 Leave Link  101 at Wed Jan 29 15:55:16 2025, MaxMem=   104857600 cpu:               0.0 elap:               0.0
 (Enter /sw/cluster/pub/apps//g16/l103.exe)

 GradGradGradGradGradGradGradGradGradGradGradGradGradGradGradGradGradGrad
 Berny optimization.
 Initialization pass.
                           ----------------------------
                           !    Initial Parameters    !
                           ! (Angstroms and Degrees)  !
 --------------------------                            --------------------------
 ! Name  Definition              Value          Derivative Info.                !
 --------------------------------------------------------------------------------
 ! R1    R(1,2)                  1.3902         estimate D2E/DX2                !
 ! R2    R(1,6)                  1.3826         estimate D2E/DX2                !
 ! R3    R(1,7)                  1.0829         estimate D2E/DX2                !
 ! R4    R(2,3)                  1.3815         estimate D2E/DX2                !
 ! R5    R(2,8)                  1.0838         estimate D2E/DX2                !
 ! R6    R(3,4)                  1.3885         estimate D2E/DX2                !
 ! R7    R(3,9)                  1.3352         estimate D2E/DX2                !
 ! R8    R(4,5)                  1.3823         estimate D2E/DX2                !
 ! R9    R(4,10)                 1.3322         estimate D2E/DX2                !
 ! R10   R(5,6)                  1.3845         estimate D2E/DX2                !
 ! R11   R(5,12)                 1.0829         estimate D2E/DX2                !
 ! R12   R(6,11)                 1.3403         estimate D2E/DX2                !
 ! A1    A(2,1,6)              118.6157         estimate D2E/DX2                !
 ! A2    A(2,1,7)              121.4136         estimate D2E/DX2                !
 ! A3    A(6,1,7)              119.9707         estimate D2E/DX2                !
 ! A4    A(1,2,3)              119.9775         estimate D2E/DX2                !
 ! A5    A(1,2,8)              121.1889         estimate D2E/DX2                !
 ! A6    A(3,2,8)              118.8337         estimate D2E/DX2                !
 ! A7    A(2,3,4)              120.1978         estimate D2E/DX2                !
 ! A8    A(2,3,9)              120.5398         estimate D2E/DX2                !
 ! A9    A(4,3,9)              119.2625         estimate D2E/DX2                !
 ! A10   A(3,4,5)              120.8182         estimate D2E/DX2                !
 ! A11   A(3,4,10)             119.3138         estimate D2E/DX2                !
 ! A12   A(5,4,10)             119.8679         estimate D2E/DX2                !
 ! A13   A(4,5,6)              117.9505         estimate D2E/DX2                !
 ! A14   A(4,5,12)             120.5998         estimate D2E/DX2                !
 ! A15   A(6,5,12)             121.4497         estimate D2E/DX2                !
 ! A16   A(1,6,5)              122.4404         estimate D2E/DX2                !
 ! A17   A(1,6,11)             119.1749         estimate D2E/DX2                !
 ! A18   A(5,6,11)             118.3847         estimate D2E/DX2                !
 ! D1    D(6,1,2,3)              0.0            estimate D2E/DX2                !
 ! D2    D(6,1,2,8)            180.0            estimate D2E/DX2                !
 ! D3    D(7,1,2,3)           -180.0            estimate D2E/DX2                !
 ! D4    D(7,1,2,8)              0.0            estimate D2E/DX2                !
 ! D5    D(2,1,6,5)              0.0            estimate D2E/DX2                !
 ! D6    D(2,1,6,11)           180.0            estimate D2E/DX2                !
 ! D7    D(7,1,6,5)            180.0            estimate D2E/DX2                !
 ! D8    D(7,1,6,11)             0.0            estimate D2E/DX2                !
 ! D9    D(1,2,3,4)              0.0            estimate D2E/DX2                !
 ! D10   D(1,2,3,9)            180.0            estimate D2E/DX2                !
 ! D11   D(8,2,3,4)            180.0            estimate D2E/DX2                !
 ! D12   D(8,2,3,9)              0.0            estimate D2E/DX2                !
 ! D13   D(2,3,4,5)              0.0            estimate D2E/DX2                !
 ! D14   D(2,3,4,10)           180.0            estimate D2E/DX2                !
 ! D15   D(9,3,4,5)            180.0            estimate D2E/DX2                !
 ! D16   D(9,3,4,10)             0.0            estimate D2E/DX2                !
 ! D17   D(3,4,5,6)              0.0            estimate D2E/DX2                !
 ! D18   D(3,4,5,12)          -180.0            estimate D2E/DX2                !
 ! D19   D(10,4,5,6)           180.0            estimate D2E/DX2                !
 ! D20   D(10,4,5,12)            0.0            estimate D2E/DX2                !
 ! D21   D(4,5,6,1)              0.0            estimate D2E/DX2                !
 ! D22   D(4,5,6,11)           180.0            estimate D2E/DX2                !
 ! D23   D(12,5,6,1)           180.0            estimate D2E/DX2                !
 ! D24   D(12,5,6,11)            0.0            estimate D2E/DX2                !
 --------------------------------------------------------------------------------
 Trust Radius=3.00D-01 FncErr=1.00D-07 GrdErr=1.00D-06 EigMax=2.50D+02 EigMin=1.00D-04
 Number of steps in this run=     64 maximum allowed number of steps=    100.
 GradGradGradGradGradGradGradGradGradGradGradGradGradGradGradGradGradGrad

 Leave Link  103 at Wed Jan 29 15:55:16 2025, MaxMem=   104857600 cpu:               0.0 elap:               0.0
 (Enter /sw/cluster/pub/apps//g16/l202.exe)
                          Input orientation:                          
 ---------------------------------------------------------------------
 Center     Atomic      Atomic             Coordinates (Angstroms)
 Number     Number       Type             X           Y           Z
 ---------------------------------------------------------------------
      1          6           0        1.207257    0.697130   -0.000000
      2          6           0        1.200244   -0.693100    0.000000
      3          6           0        0.000083   -1.377339    0.000000
      4          6           0       -1.201044   -0.680683   -0.000000
      5          6           0       -1.218039    0.701533    0.000000
      6          6           0       -0.003132    1.365432    0.000000
      7          1           0        2.134309    1.256905   -0.000000
      8          1           0        2.124542   -1.259020    0.000000
      9          9           0       -0.019756   -2.712423   -0.000000
     10          9           0       -2.348076   -1.358289   -0.000000
     11          9           0       -0.009452    2.705682   -0.000000
     12          1           0       -2.156854    1.241275    0.000000
 ---------------------------------------------------------------------
                    Distance matrix (angstroms):
                    1          2          3          4          5
     1  C    0.000000
     2  C    1.390248   0.000000
     3  C    2.400145   1.381510   0.000000
     4  C    2.774579   2.401321   1.388538   0.000000
     5  C    2.425300   2.791612   2.409467   1.382321   0.000000
     6  C    1.382632   2.384465   2.742773   2.370987   1.384471
     7  H    1.082947   2.162175   3.390305   3.857309   3.398040
     8  H    2.160541   1.083786   2.127751   3.375500   3.875128
     9  F    3.623620   2.359251   1.335232   2.350194   3.618146
    10  F    4.106719   3.610132   2.348236   1.332228   2.349436
    11  F    2.348331   3.607642   4.083032   3.589897   2.340362
    12  H    3.407835   3.874522   3.392568   2.146508   1.082911
                    6          7          8          9         10
     6  C    0.000000
     7  H    2.140195   0.000000
     8  H    3.378572   2.515945   0.000000
     9  F    4.077890   4.516145   2.590443   0.000000
    10  F    3.594081   5.189510   4.473719   2.693466   0.000000
    11  F    1.340264   2.587405   4.502531   5.418115   4.688819
    12  H    2.157298   4.291192   4.958007   4.494321   2.606587
                   11         12
    11  F    0.000000
    12  H    2.599197   0.000000
 Symmetry turned off by external request.
 Stoichiometry    C6H3F3(1+,2)
 Framework group  CS[SG(C6H3F3)]
 Deg. of freedom    21
 Full point group                 CS      NOp   2
 Rotational constants (GHZ):           3.1020610           1.2836622           0.9079457
 Leave Link  202 at Wed Jan 29 15:55:16 2025, MaxMem=   104857600 cpu:               0.0 elap:               0.0
 (Enter /sw/cluster/pub/apps//g16/l301.exe)
 Standard basis: 6-311++G(d,p) (5D, 7F)
 Ernie: Thresh=  0.10000D-02 Tol=  0.10000D-05 Strict=F.
   219 basis functions,   351 primitive gaussians,   228 cartesian basis functions
    33 alpha electrons       32 beta electrons
       nuclear repulsion energy       428.1102534582 Hartrees.
 IExCor= 1009 DFT=T Ex+Corr=PBE1PBE ExCW=0 ScaHFX=  0.250000
 ScaDFX=  0.750000  0.750000  1.000000  1.000000 ScalE2=  1.000000  1.000000
 IRadAn=      5 IRanWt=     -1 IRanGd=            0 ICorTp=0 IEmpDi=  4
 NAtoms=   12 NActive=   12 NUniq=   12 SFac= 1.00D+00 NAtFMM=   60 NAOKFM=F Big=F
 Integral buffers will be    131072 words long.
 Raffenetti 2 integral format.
 Two-electron integral symmetry is turned off.
 Leave Link  301 at Wed Jan 29 15:55:16 2025, MaxMem=   104857600 cpu:               0.0 elap:               0.0
 (Enter /sw/cluster/pub/apps//g16/l302.exe)
 NPDir=0 NMtPBC=     1 NCelOv=     1 NCel=       1 NClECP=     1 NCelD=      1
         NCelK=      1 NCelE2=     1 NClLst=     1 CellRange=     0.0.
 One-electron integrals computed using PRISM.
 NBasis=   219 RedAO= T EigKep=  2.23D-06  NBF=   219
 NBsUse=   219 1.00D-06 EigRej= -1.00D+00 NBFU=   219
 Precomputing XC quadrature grid using
 IXCGrd= 4 IRadAn=           5 IRanWt=          -1 IRanGd=           0 AccXCQ= 0.00D+00.
 Generated NRdTot=       0 NPtTot=           0 NUsed=           0 NTot=          32
 NSgBfM=   228   228   228   228   228 MxSgAt=    12 MxSgA2=    12.
 Leave Link  302 at Wed Jan 29 15:55:16 2025, MaxMem=   104857600 cpu:               0.1 elap:               0.1
 (Enter /sw/cluster/pub/apps//g16/l303.exe)
 DipDrv:  MaxL=1.
 Leave Link  303 at Wed Jan 29 15:55:16 2025, MaxMem=   104857600 cpu:               0.0 elap:               0.0
 (Enter /sw/cluster/pub/apps//g16/l401.exe)
 ExpMin= 3.60D-02 ExpMax= 1.14D+04 ExpMxC= 1.72D+03 IAcc=3 IRadAn=         5 AccDes= 0.00D+00
 Harris functional with IExCor= 1009 and IRadAn=       5 diagonalized for initial guess.
 HarFok:  IExCor= 1009 AccDes= 0.00D+00 IRadAn=         5 IDoV= 1 UseB2=F ITyADJ=14
 ICtDFT=  3500011 ScaDFX=  1.000000  1.000000  1.000000  1.000000
 FoFCou: FMM=F IPFlag=           0 FMFlag=      100000 FMFlg1=           0
         NFxFlg=           0 DoJE=T BraDBF=F KetDBF=T FulRan=T
         wScrn=  0.000000 ICntrl=       500 IOpCl=  0 I1Cent=   200000004 NGrid=           0
         NMat0=    1 NMatS0=      1 NMatT0=    0 NMatD0=    1 NMtDS0=    0 NMtDT0=    0
 Symmetry not used in FoFCou.
 Harris En= -529.301448361338    
 JPrj=0 DoOrth=F DoCkMO=F.
 Initial guess <Sx>= 0.0000 <Sy>= 0.0000 <Sz>= 0.5000 <S**2>= 0.7500 S= 0.5000
 Leave Link  401 at Wed Jan 29 15:55:17 2025, MaxMem=   104857600 cpu:               1.3 elap:               1.3
 (Enter /sw/cluster/pub/apps//g16/l502.exe)
 Two-electron integral symmetry not used.
 UHF open shell SCF:
 Using DIIS extrapolation, IDIIS=  1040.
 NGot=   104857600 LenX=   104750604 LenY=   104698179
 Requested convergence on RMS density matrix=1.00D-08 within 128 cycles.
 Requested convergence on MAX density matrix=1.00D-06.
 Requested convergence on             energy=1.00D-06.
 No special actions if energy rises.
 Fock matrices will be formed incrementally for  20 cycles.

 Cycle   1  Pass 1  IDiag  1:
 FoFJK:  IHMeth= 1 ICntrl=       0 DoSepK=F KAlg= 0 I1Cent=           0 FoldK=F
 IRaf= 950000000 NMat=       1 IRICut=       1 DoRegI=T DoRafI=F ISym2E= 0 IDoP0=0 IntGTp=1.
 FoFCou: FMM=F IPFlag=           0 FMFlag=      100000 FMFlg1=           0
         NFxFlg=           0 DoJE=F BraDBF=F KetDBF=F FulRan=T
         wScrn=  0.000000 ICntrl=         0 IOpCl=  1 I1Cent=           0 NGrid=           0
         NMat0=    1 NMatS0=      1 NMatT0=    0 NMatD0=    1 NMtDS0=    0 NMtDT0=    0
 Symmetry not used in FoFCou.
 E= -529.097090608953    
 DIIS: error= 1.90D-02 at cycle   1 NSaved=   1.
 NSaved= 1 IEnMin= 1 EnMin= -529.097090608953     IErMin= 1 ErrMin= 1.90D-02
 ErrMax= 1.90D-02  0.00D+00 EMaxC= 1.00D-01 BMatC= 5.44D-01 BMatP= 5.44D-01
 IDIUse=3 WtCom= 8.10D-01 WtEn= 1.90D-01
 Coeff-Com:  0.100D+01
 Coeff-En:   0.100D+01
 Coeff:      0.100D+01
 Gap=     0.299 Goal=   None    Shift=    0.000
 Gap=     0.026 Goal=   None    Shift=    0.000
 GapD=    0.026 DampG=0.250 DampE=0.500 DampFc=0.2500 IDamp=-1.
 Damping current iteration by 2.50D-01
 RMSDP=9.21D-03 MaxDP=3.53D-01              OVMax= 2.97D-01

 Cycle   2  Pass 1  IDiag  1:
 RMSU=  2.27D-03    CP:  9.92D-01
 E= -529.132626295935     Delta-E=       -0.035535686983 Rises=F Damp=T
 DIIS: error= 1.09D-02 at cycle   2 NSaved=   2.
 NSaved= 2 IEnMin= 2 EnMin= -529.132626295935     IErMin= 2 ErrMin= 1.09D-02
 ErrMax= 1.09D-02  0.00D+00 EMaxC= 1.00D-01 BMatC= 1.65D-01 BMatP= 5.44D-01
 IDIUse=3 WtCom= 8.91D-01 WtEn= 1.09D-01
 Coeff-Com: -0.833D+00 0.183D+01
 Coeff-En:   0.000D+00 0.100D+01
 Coeff:     -0.742D+00 0.174D+01
 Gap=     0.256 Goal=   None    Shift=    0.000
 Gap=     0.069 Goal=   None    Shift=    0.000
 RMSDP=6.69D-03 MaxDP=2.75D-01 DE=-3.55D-02 OVMax= 2.94D-01

 Cycle   3  Pass 1  IDiag  1:
 RMSU=  3.00D-03    CP:  9.18D-01  3.00D+00
 E= -529.184700720883     Delta-E=       -0.052074424947 Rises=F Damp=F
 DIIS: error= 1.16D-02 at cycle   3 NSaved=   3.
 NSaved= 3 IEnMin= 3 EnMin= -529.184700720883     IErMin= 2 ErrMin= 1.09D-02
 ErrMax= 1.16D-02  0.00D+00 EMaxC= 1.00D-01 BMatC= 5.74D-02 BMatP= 1.65D-01
 IDIUse=3 WtCom= 8.84D-01 WtEn= 1.16D-01
 Coeff-Com: -0.522D+00 0.967D+00 0.555D+00
 Coeff-En:   0.000D+00 0.000D+00 0.100D+01
 Coeff:     -0.461D+00 0.855D+00 0.607D+00
 Gap=     0.265 Goal=   None    Shift=    0.000
 Gap=     0.088 Goal=   None    Shift=    0.000
 RMSDP=1.42D-03 MaxDP=4.97D-02 DE=-5.21D-02 OVMax= 1.37D-01

 Cycle   4  Pass 1  IDiag  1:
 RMSU=  1.04D-03    CP:  9.15D-01  3.00D+00  6.78D-01
 E= -529.194696162210     Delta-E=       -0.009995441328 Rises=F Damp=F
 DIIS: error= 6.35D-03 at cycle   4 NSaved=   4.
 NSaved= 4 IEnMin= 4 EnMin= -529.194696162210     IErMin= 4 ErrMin= 6.35D-03
 ErrMax= 6.35D-03  0.00D+00 EMaxC= 1.00D-01 BMatC= 2.40D-02 BMatP= 5.74D-02
 IDIUse=3 WtCom= 9.37D-01 WtEn= 6.35D-02
 Coeff-Com: -0.172D+00 0.273D+00 0.407D+00 0.492D+00
 Coeff-En:   0.000D+00 0.000D+00 0.321D+00 0.679D+00
 Coeff:     -0.161D+00 0.256D+00 0.402D+00 0.504D+00
 Gap=     0.263 Goal=   None    Shift=    0.000
 Gap=     0.086 Goal=   None    Shift=    0.000
 RMSDP=7.42D-04 MaxDP=3.26D-02 DE=-1.00D-02 OVMax= 5.75D-02

 Cycle   5  Pass 1  IDiag  1:
 RMSU=  3.24D-04    CP:  9.07D-01  3.00D+00  7.98D-01  6.03D-01
 E= -529.201286530275     Delta-E=       -0.006590368065 Rises=F Damp=F
 DIIS: error= 1.08D-03 at cycle   5 NSaved=   5.
 NSaved= 5 IEnMin= 5 EnMin= -529.201286530275     IErMin= 5 ErrMin= 1.08D-03
 ErrMax= 1.08D-03  0.00D+00 EMaxC= 1.00D-01 BMatC= 5.08D-04 BMatP= 2.40D-02
 IDIUse=3 WtCom= 9.89D-01 WtEn= 1.08D-02
 Coeff-Com: -0.368D-01 0.504D-01 0.127D+00 0.212D+00 0.647D+00
 Coeff-En:   0.000D+00 0.000D+00 0.000D+00 0.000D+00 0.100D+01
 Coeff:     -0.364D-01 0.498D-01 0.126D+00 0.210D+00 0.651D+00
 Gap=     0.258 Goal=   None    Shift=    0.000
 Gap=     0.089 Goal=   None    Shift=    0.000
 RMSDP=1.18D-04 MaxDP=8.75D-03 DE=-6.59D-03 OVMax= 7.22D-03

 Cycle   6  Pass 1  IDiag  1:
 RMSU=  9.55D-05    CP:  9.06D-01  3.00D+00  8.05D-01  6.43D-01  9.66D-01
 E= -529.201423727635     Delta-E=       -0.000137197359 Rises=F Damp=F
 DIIS: error= 4.87D-04 at cycle   6 NSaved=   6.
 NSaved= 6 IEnMin= 6 EnMin= -529.201423727635     IErMin= 6 ErrMin= 4.87D-04
 ErrMax= 4.87D-04  0.00D+00 EMaxC= 1.00D-01 BMatC= 9.49D-05 BMatP= 5.08D-04
 IDIUse=3 WtCom= 9.95D-01 WtEn= 4.87D-03
 Coeff-Com:  0.969D-02-0.187D-01-0.603D-02 0.183D-01 0.307D+00 0.689D+00
 Coeff-En:   0.000D+00 0.000D+00 0.000D+00 0.000D+00 0.000D+00 0.100D+01
 Coeff:      0.964D-02-0.186D-01-0.600D-02 0.182D-01 0.306D+00 0.691D+00
 Gap=     0.258 Goal=   None    Shift=    0.000
 Gap=     0.090 Goal=   None    Shift=    0.000
 RMSDP=6.13D-05 MaxDP=2.57D-03 DE=-1.37D-04 OVMax= 3.67D-03

 Cycle   7  Pass 1  IDiag  1:
 RMSU=  5.50D-05    CP:  9.06D-01  3.00D+00  8.10D-01  6.57D-01  9.74D-01
                    CP:  8.99D-01
 E= -529.201458070026     Delta-E=       -0.000034342391 Rises=F Damp=F
 DIIS: error= 1.77D-04 at cycle   7 NSaved=   7.
 NSaved= 7 IEnMin= 7 EnMin= -529.201458070026     IErMin= 7 ErrMin= 1.77D-04
 ErrMax= 1.77D-04  0.00D+00 EMaxC= 1.00D-01 BMatC= 1.87D-05 BMatP= 9.49D-05
 IDIUse=3 WtCom= 9.98D-01 WtEn= 1.77D-03
 Coeff-Com:  0.108D-01-0.162D-01-0.306D-01-0.430D-01-0.393D-01 0.291D+00
 Coeff-Com:  0.828D+00
 Coeff-En:   0.000D+00 0.000D+00 0.000D+00 0.000D+00 0.000D+00 0.000D+00
 Coeff-En:   0.100D+01
 Coeff:      0.107D-01-0.162D-01-0.306D-01-0.429D-01-0.393D-01 0.290D+00
 Coeff:      0.828D+00
 Gap=     0.257 Goal=   None    Shift=    0.000
 Gap=     0.091 Goal=   None    Shift=    0.000
 RMSDP=4.09D-05 MaxDP=2.19D-03 DE=-3.43D-05 OVMax= 2.11D-03

 Cycle   8  Pass 1  IDiag  1:
 RMSU=  3.54D-05    CP:  9.06D-01  3.00D+00  8.08D-01  6.59D-01  9.75D-01
                    CP:  1.01D+00  1.09D+00
 E= -529.201467029238     Delta-E=       -0.000008959212 Rises=F Damp=F
 DIIS: error= 8.61D-05 at cycle   8 NSaved=   8.
 NSaved= 8 IEnMin= 8 EnMin= -529.201467029238     IErMin= 8 ErrMin= 8.61D-05
 ErrMax= 8.61D-05  0.00D+00 EMaxC= 1.00D-01 BMatC= 4.09D-06 BMatP= 1.87D-05
 IDIUse=1 WtCom= 1.00D+00 WtEn= 0.00D+00
 Coeff-Com:  0.246D-02-0.283D-02-0.122D-01-0.238D-01-0.943D-01-0.224D-01
 Coeff-Com:  0.395D+00 0.758D+00
 Coeff:      0.246D-02-0.283D-02-0.122D-01-0.238D-01-0.943D-01-0.224D-01
 Coeff:      0.395D+00 0.758D+00
 Gap=     0.257 Goal=   None    Shift=    0.000
 Gap=     0.091 Goal=   None    Shift=    0.000
 RMSDP=1.57D-05 MaxDP=9.41D-04 DE=-8.96D-06 OVMax= 8.27D-04

 Cycle   9  Pass 1  IDiag  1:
 RMSU=  7.89D-06    CP:  9.06D-01  3.00D+00  8.09D-01  6.60D-01  9.90D-01
                    CP:  1.07D+00  1.27D+00  9.81D-01
 E= -529.201468576263     Delta-E=       -0.000001547025 Rises=F Damp=F
 DIIS: error= 3.23D-05 at cycle   9 NSaved=   9.
 NSaved= 9 IEnMin= 9 EnMin= -529.201468576263     IErMin= 9 ErrMin= 3.23D-05
 ErrMax= 3.23D-05  0.00D+00 EMaxC= 1.00D-01 BMatC= 5.65D-07 BMatP= 4.09D-06
 IDIUse=1 WtCom= 1.00D+00 WtEn= 0.00D+00
 Coeff-Com:  0.399D-03-0.240D-03-0.333D-02-0.791D-02-0.427D-01-0.311D-01
 Coeff-Com:  0.120D+00 0.349D+00 0.616D+00
 Coeff:      0.399D-03-0.240D-03-0.333D-02-0.791D-02-0.427D-01-0.311D-01
 Coeff:      0.120D+00 0.349D+00 0.616D+00
 Gap=     0.257 Goal=   None    Shift=    0.000
 Gap=     0.091 Goal=   None    Shift=    0.000
 RMSDP=4.79D-06 MaxDP=2.82D-04 DE=-1.55D-06 OVMax= 3.81D-04

 Cycle  10  Pass 1  IDiag  1:
 RMSU=  3.76D-06    CP:  9.06D-01  3.00D+00  8.09D-01  6.60D-01  9.90D-01
                    CP:  1.09D+00  1.29D+00  1.00D+00  8.07D-01
 E= -529.201468721599     Delta-E=       -0.000000145336 Rises=F Damp=F
 DIIS: error= 1.87D-05 at cycle  10 NSaved=  10.
 NSaved=10 IEnMin=10 EnMin= -529.201468721599     IErMin=10 ErrMin= 1.87D-05
 ErrMax= 1.87D-05  0.00D+00 EMaxC= 1.00D-01 BMatC= 1.24D-07 BMatP= 5.65D-07
 IDIUse=1 WtCom= 1.00D+00 WtEn= 0.00D+00
 Coeff-Com: -0.476D-03 0.665D-03 0.194D-02 0.293D-02 0.726D-02-0.331D-02
 Coeff-Com: -0.541D-01-0.672D-01 0.290D+00 0.822D+00
 Coeff:     -0.476D-03 0.665D-03 0.194D-02 0.293D-02 0.726D-02-0.331D-02
 Coeff:     -0.541D-01-0.672D-01 0.290D+00 0.822D+00
 Gap=     0.257 Goal=   None    Shift=    0.000
 Gap=     0.091 Goal=   None    Shift=    0.000
 RMSDP=2.11D-06 MaxDP=1.18D-04 DE=-1.45D-07 OVMax= 1.65D-04

 Cycle  11  Pass 1  IDiag  1:
 RMSU=  1.39D-06    CP:  9.06D-01  3.00D+00  8.09D-01  6.60D-01  9.91D-01
                    CP:  1.09D+00  1.30D+00  1.01D+00  9.66D-01  1.07D+00
 E= -529.201468773347     Delta-E=       -0.000000051749 Rises=F Damp=F
 DIIS: error= 7.97D-06 at cycle  11 NSaved=  11.
 NSaved=11 IEnMin=11 EnMin= -529.201468773347     IErMin=11 ErrMin= 7.97D-06
 ErrMax= 7.97D-06  0.00D+00 EMaxC= 1.00D-01 BMatC= 1.86D-08 BMatP= 1.24D-07
 IDIUse=1 WtCom= 1.00D+00 WtEn= 0.00D+00
 Coeff-Com: -0.254D-03 0.329D-03 0.117D-02 0.187D-02 0.679D-02 0.155D-02
 Coeff-Com: -0.333D-01-0.643D-01 0.661D-01 0.327D+00 0.693D+00
 Coeff:     -0.254D-03 0.329D-03 0.117D-02 0.187D-02 0.679D-02 0.155D-02
 Coeff:     -0.333D-01-0.643D-01 0.661D-01 0.327D+00 0.693D+00
 Gap=     0.257 Goal=   None    Shift=    0.000
 Gap=     0.091 Goal=   None    Shift=    0.000
 RMSDP=1.05D-06 MaxDP=8.08D-05 DE=-5.17D-08 OVMax= 1.07D-04

 Cycle  12  Pass 1  IDiag  1:
 RMSU=  6.21D-07    CP:  9.06D-01  3.00D+00  8.09D-01  6.60D-01  9.90D-01
                    CP:  1.09D+00  1.30D+00  1.02D+00  9.88D-01  1.16D+00
                    CP:  1.17D+00
 E= -529.201468785200     Delta-E=       -0.000000011853 Rises=F Damp=F
 DIIS: error= 4.44D-06 at cycle  12 NSaved=  12.
 NSaved=12 IEnMin=12 EnMin= -529.201468785200     IErMin=12 ErrMin= 4.44D-06
 ErrMax= 4.44D-06  0.00D+00 EMaxC= 1.00D-01 BMatC= 5.42D-09 BMatP= 1.86D-08
 IDIUse=1 WtCom= 1.00D+00 WtEn= 0.00D+00
 Coeff-Com:  0.540D-04-0.850D-04-0.116D-03-0.198D-03 0.981D-03 0.236D-02
 Coeff-Com:  0.429D-02-0.534D-02-0.681D-01-0.194D+00 0.226D+00 0.103D+01
 Coeff:      0.540D-04-0.850D-04-0.116D-03-0.198D-03 0.981D-03 0.236D-02
 Coeff:      0.429D-02-0.534D-02-0.681D-01-0.194D+00 0.226D+00 0.103D+01
 Gap=     0.257 Goal=   None    Shift=    0.000
 Gap=     0.091 Goal=   None    Shift=    0.000
 RMSDP=1.08D-06 MaxDP=1.08D-04 DE=-1.19D-08 OVMax= 1.28D-04

 Cycle  13  Pass 1  IDiag  1:
 RMSU=  3.77D-07    CP:  9.06D-01  3.00D+00  8.09D-01  6.60D-01  9.91D-01
                    CP:  1.09D+00  1.30D+00  1.01D+00  1.00D+00  1.25D+00
                    CP:  1.58D+00  1.43D+00
 E= -529.201468792839     Delta-E=       -0.000000007639 Rises=F Damp=F
 DIIS: error= 2.89D-06 at cycle  13 NSaved=  13.
 NSaved=13 IEnMin=13 EnMin= -529.201468792839     IErMin=13 ErrMin= 2.89D-06
 ErrMax= 2.89D-06  0.00D+00 EMaxC= 1.00D-01 BMatC= 2.56D-09 BMatP= 5.42D-09
 IDIUse=1 WtCom= 1.00D+00 WtEn= 0.00D+00
 Coeff-Com:  0.952D-04-0.133D-03-0.366D-03-0.658D-03-0.150D-02 0.800D-03
 Coeff-Com:  0.113D-01 0.123D-01-0.462D-01-0.187D+00-0.173D-01 0.573D+00
 Coeff-Com:  0.655D+00
 Coeff:      0.952D-04-0.133D-03-0.366D-03-0.658D-03-0.150D-02 0.800D-03
 Coeff:      0.113D-01 0.123D-01-0.462D-01-0.187D+00-0.173D-01 0.573D+00
 Coeff:      0.655D+00
 Gap=     0.257 Goal=   None    Shift=    0.000
 Gap=     0.091 Goal=   None    Shift=    0.000
 RMSDP=4.46D-07 MaxDP=2.76D-05 DE=-7.64D-09 OVMax= 5.87D-05

 Cycle  14  Pass 1  IDiag  1:
 RMSU=  2.09D-07    CP:  9.06D-01  3.00D+00  8.09D-01  6.60D-01  9.90D-01
                    CP:  1.09D+00  1.30D+00  1.01D+00  1.01D+00  1.27D+00
                    CP:  1.74D+00  1.77D+00  1.26D+00
 E= -529.201468794857     Delta-E=       -0.000000002018 Rises=F Damp=F
 DIIS: error= 1.37D-06 at cycle  14 NSaved=  14.
 NSaved=14 IEnMin=14 EnMin= -529.201468794857     IErMin=14 ErrMin= 1.37D-06
 ErrMax= 1.37D-06  0.00D+00 EMaxC= 1.00D-01 BMatC= 7.48D-10 BMatP= 2.56D-09
 IDIUse=1 WtCom= 1.00D+00 WtEn= 0.00D+00
 Coeff-Com: -0.174D-05 0.748D-05-0.183D-04-0.641D-04-0.645D-03-0.680D-03
 Coeff-Com:  0.787D-03 0.410D-02 0.258D-01 0.191D-01-0.130D+00-0.315D+00
 Coeff-Com:  0.323D+00 0.107D+01
 Coeff:     -0.174D-05 0.748D-05-0.183D-04-0.641D-04-0.645D-03-0.680D-03
 Coeff:      0.787D-03 0.410D-02 0.258D-01 0.191D-01-0.130D+00-0.315D+00
 Coeff:      0.323D+00 0.107D+01
 Gap=     0.257 Goal=   None    Shift=    0.000
 Gap=     0.091 Goal=   None    Shift=    0.000
 RMSDP=4.74D-07 MaxDP=3.43D-05 DE=-2.02D-09 OVMax= 8.22D-05

 Cycle  15  Pass 1  IDiag  1:
 RMSU=  1.39D-07    CP:  9.06D-01  3.00D+00  8.09D-01  6.60D-01  9.90D-01
                    CP:  1.09D+00  1.30D+00  1.01D+00  1.01D+00  1.30D+00
                    CP:  1.89D+00  2.10D+00  1.84D+00  1.38D+00
 E= -529.201468796070     Delta-E=       -0.000000001213 Rises=F Damp=F
 DIIS: error= 7.24D-07 at cycle  15 NSaved=  15.
 NSaved=15 IEnMin=15 EnMin= -529.201468796070     IErMin=15 ErrMin= 7.24D-07
 ErrMax= 7.24D-07  0.00D+00 EMaxC= 1.00D-01 BMatC= 1.23D-10 BMatP= 7.48D-10
 IDIUse=1 WtCom= 1.00D+00 WtEn= 0.00D+00
 Coeff-Com: -0.108D-04 0.156D-04 0.549D-04 0.818D-04 0.135D-03-0.144D-03
 Coeff-Com: -0.148D-02-0.219D-02 0.141D-01 0.239D-01 0.865D-02-0.119D+00
 Coeff-Com: -0.134D+00 0.111D+00 0.110D+01
 Coeff:     -0.108D-04 0.156D-04 0.549D-04 0.818D-04 0.135D-03-0.144D-03
 Coeff:     -0.148D-02-0.219D-02 0.141D-01 0.239D-01 0.865D-02-0.119D+00
 Coeff:     -0.134D+00 0.111D+00 0.110D+01
 Gap=     0.257 Goal=   None    Shift=    0.000
 Gap=     0.091 Goal=   None    Shift=    0.000
 RMSDP=1.80D-07 MaxDP=7.80D-06 DE=-1.21D-09 OVMax= 4.24D-05

 Cycle  16  Pass 1  IDiag  1:
 RMSU=  7.77D-08    CP:  9.06D-01  3.00D+00  8.09D-01  6.60D-01  9.90D-01
                    CP:  1.09D+00  1.30D+00  1.01D+00  1.02D+00  1.30D+00
                    CP:  1.95D+00  2.21D+00  2.06D+00  1.69D+00  1.31D+00
 E= -529.201468796339     Delta-E=       -0.000000000269 Rises=F Damp=F
 DIIS: error= 4.65D-07 at cycle  16 NSaved=  16.
 NSaved=16 IEnMin=16 EnMin= -529.201468796339     IErMin=16 ErrMin= 4.65D-07
 ErrMax= 4.65D-07  0.00D+00 EMaxC= 1.00D-01 BMatC= 5.26D-11 BMatP= 1.23D-10
 IDIUse=1 WtCom= 1.00D+00 WtEn= 0.00D+00
 Coeff-Com: -0.120D-05 0.107D-05 0.179D-04 0.343D-04 0.139D-03 0.105D-03
 Coeff-Com: -0.424D-03-0.150D-02 0.180D-02-0.208D-02 0.276D-01 0.146D-01
 Coeff-Com: -0.108D+00-0.940D-01 0.244D+00 0.918D+00
 Coeff:     -0.120D-05 0.107D-05 0.179D-04 0.343D-04 0.139D-03 0.105D-03
 Coeff:     -0.424D-03-0.150D-02 0.180D-02-0.208D-02 0.276D-01 0.146D-01
 Coeff:     -0.108D+00-0.940D-01 0.244D+00 0.918D+00
 Gap=     0.257 Goal=   None    Shift=    0.000
 Gap=     0.091 Goal=   None    Shift=    0.000
 RMSDP=9.23D-08 MaxDP=3.40D-06 DE=-2.69D-10 OVMax= 2.21D-05

 Cycle  17  Pass 1  IDiag  1:
 RMSU=  3.36D-08    CP:  9.06D-01  3.00D+00  8.09D-01  6.60D-01  9.90D-01
                    CP:  1.09D+00  1.30D+00  1.01D+00  1.02D+00  1.30D+00
                    CP:  1.97D+00  2.23D+00  2.10D+00  1.83D+00  1.63D+00
                    CP:  1.50D+00
 E= -529.201468796438     Delta-E=       -0.000000000099 Rises=F Damp=F
 DIIS: error= 4.38D-07 at cycle  17 NSaved=  17.
 NSaved=17 IEnMin=17 EnMin= -529.201468796438     IErMin=17 ErrMin= 4.38D-07
 ErrMax= 4.38D-07  0.00D+00 EMaxC= 1.00D-01 BMatC= 2.39D-11 BMatP= 5.26D-11
 IDIUse=1 WtCom= 1.00D+00 WtEn= 0.00D+00
 Coeff-Com:  0.459D-05-0.701D-05-0.166D-04-0.185D-04 0.205D-04 0.184D-03
 Coeff-Com:  0.569D-03 0.248D-04-0.504D-02-0.178D-01 0.189D-01 0.749D-01
 Coeff-Com: -0.981D-02-0.850D-01-0.435D+00 0.290D+00 0.117D+01
 Coeff:      0.459D-05-0.701D-05-0.166D-04-0.185D-04 0.205D-04 0.184D-03
 Coeff:      0.569D-03 0.248D-04-0.504D-02-0.178D-01 0.189D-01 0.749D-01
 Coeff:     -0.981D-02-0.850D-01-0.435D+00 0.290D+00 0.117D+01
 Gap=     0.257 Goal=   None    Shift=    0.000
 Gap=     0.091 Goal=   None    Shift=    0.000
 RMSDP=1.05D-07 MaxDP=4.68D-06 DE=-9.87D-11 OVMax= 2.74D-05

 Cycle  18  Pass 1  IDiag  1:
 RMSU=  2.39D-08    CP:  9.06D-01  3.00D+00  8.09D-01  6.60D-01  9.90D-01
                    CP:  1.09D+00  1.30D+00  1.01D+00  1.02D+00  1.30D+00
                    CP:  1.99D+00  2.24D+00  2.12D+00  1.94D+00  1.94D+00
                    CP:  2.34D+00  1.99D+00
 E= -529.201468796519     Delta-E=       -0.000000000081 Rises=F Damp=F
 DIIS: error= 2.06D-07 at cycle  18 NSaved=  18.
 NSaved=18 IEnMin=18 EnMin= -529.201468796519     IErMin=18 ErrMin= 2.06D-07
 ErrMax= 2.06D-07  0.00D+00 EMaxC= 1.00D-01 BMatC= 1.62D-11 BMatP= 2.39D-11
 IDIUse=1 WtCom= 1.00D+00 WtEn= 0.00D+00
 Coeff-Com:  0.722D-06-0.822D-06-0.119D-04-0.190D-04-0.967D-04-0.592D-04
 Coeff-Com:  0.276D-03 0.840D-03 0.119D-02-0.115D-02-0.137D-01-0.213D-01
 Coeff-Com:  0.528D-01 0.113D+00-0.145D+00-0.108D+01 0.592D+00 0.150D+01
 Coeff:      0.722D-06-0.822D-06-0.119D-04-0.190D-04-0.967D-04-0.592D-04
 Coeff:      0.276D-03 0.840D-03 0.119D-02-0.115D-02-0.137D-01-0.213D-01
 Coeff:      0.528D-01 0.113D+00-0.145D+00-0.108D+01 0.592D+00 0.150D+01
 Gap=     0.257 Goal=   None    Shift=    0.000
 Gap=     0.091 Goal=   None    Shift=    0.000
 RMSDP=1.42D-07 MaxDP=6.53D-06 DE=-8.09D-11 OVMax= 3.38D-05

 Cycle  19  Pass 1  IDiag  1:
 RMSU=  4.38D-08    CP:  9.06D-01  3.00D+00  8.09D-01  6.60D-01  9.90D-01
                    CP:  1.09D+00  1.30D+00  1.01D+00  1.03D+00  1.30D+00
                    CP:  2.01D+00  2.25D+00  2.13D+00  2.08D+00  2.32D+00
                    CP:  3.00D+00  3.00D+00  1.60D+00
 E= -529.201468796569     Delta-E=       -0.000000000050 Rises=F Damp=F
 DIIS: error= 6.03D-08 at cycle  19 NSaved=  19.
 NSaved=19 IEnMin=19 EnMin= -529.201468796569     IErMin=19 ErrMin= 6.03D-08
 ErrMax= 6.03D-08  0.00D+00 EMaxC= 1.00D-01 BMatC= 7.75D-13 BMatP= 1.62D-11
 IDIUse=1 WtCom= 1.00D+00 WtEn= 0.00D+00
 Coeff-Com: -0.121D-05 0.181D-05 0.240D-05 0.263D-05-0.726D-05-0.355D-04
 Coeff-Com: -0.954D-04 0.236D-04 0.140D-02 0.275D-02-0.434D-02-0.167D-01
 Coeff-Com:  0.405D-02 0.398D-01 0.593D-01-0.216D+00-0.360D-01 0.996D-01
 Coeff-Com:  0.107D+01
 Coeff:     -0.121D-05 0.181D-05 0.240D-05 0.263D-05-0.726D-05-0.355D-04
 Coeff:     -0.954D-04 0.236D-04 0.140D-02 0.275D-02-0.434D-02-0.167D-01
 Coeff:      0.405D-02 0.398D-01 0.593D-01-0.216D+00-0.360D-01 0.996D-01
 Coeff:      0.107D+01
 Gap=     0.257 Goal=   None    Shift=    0.000
 Gap=     0.091 Goal=   None    Shift=    0.000
 RMSDP=3.13D-08 MaxDP=1.35D-06 DE=-4.98D-11 OVMax= 6.54D-06

 Cycle  20  Pass 1  IDiag  1:
 RMSU=  8.15D-09    CP:  9.06D-01  3.00D+00  8.09D-01  6.60D-01  9.90D-01
                    CP:  1.09D+00  1.30D+00  1.01D+00  1.03D+00  1.30D+00
                    CP:  2.01D+00  2.24D+00  2.12D+00  2.09D+00  2.39D+00
                    CP:  3.00D+00  3.00D+00  1.86D+00  1.48D+00
 E= -529.201468796570     Delta-E=       -0.000000000001 Rises=F Damp=F
 DIIS: error= 3.07D-08 at cycle  20 NSaved=  20.
 NSaved=20 IEnMin=20 EnMin= -529.201468796570     IErMin=20 ErrMin= 3.07D-08
 ErrMax= 3.07D-08  0.00D+00 EMaxC= 1.00D-01 BMatC= 4.24D-13 BMatP= 7.75D-13
 IDIUse=1 WtCom= 1.00D+00 WtEn= 0.00D+00
 Coeff-Com: -0.822D-06 0.120D-05 0.307D-05 0.453D-05 0.123D-04-0.718D-05
 Coeff-Com: -0.971D-04-0.131D-03 0.522D-03 0.159D-02 0.138D-03-0.501D-02
 Coeff-Com: -0.815D-02 0.214D-02 0.591D-01 0.561D-01-0.118D+00-0.215D+00
 Coeff-Com:  0.676D+00 0.551D+00
 Coeff:     -0.822D-06 0.120D-05 0.307D-05 0.453D-05 0.123D-04-0.718D-05
 Coeff:     -0.971D-04-0.131D-03 0.522D-03 0.159D-02 0.138D-03-0.501D-02
 Coeff:     -0.815D-02 0.214D-02 0.591D-01 0.561D-01-0.118D+00-0.215D+00
 Coeff:      0.676D+00 0.551D+00
 Gap=     0.257 Goal=   None    Shift=    0.000
 Gap=     0.091 Goal=   None    Shift=    0.000
 RMSDP=9.12D-09 MaxDP=3.18D-07 DE=-9.09D-13 OVMax= 1.83D-06

 SCF Done:  E(UPBE1PBE) =  -529.201468797     A.U. after   20 cycles
            NFock= 20  Conv=0.91D-08     -V/T= 2.0030
 <Sx>= 0.0000 <Sy>= 0.0000 <Sz>= 0.5000 <S**2>= 0.7647 S= 0.5073
 <L.S>=  0.00000000000    
 KE= 5.276295934976D+02 PE=-2.090308983452D+03 EE= 6.053676677000D+02
 Annihilation of the first spin contaminant:
 S**2 before annihilation     0.7647,   after     0.7501
 Leave Link  502 at Wed Jan 29 15:56:38 2025, MaxMem=   104857600 cpu:              80.5 elap:              80.7
 (Enter /sw/cluster/pub/apps//g16/l601.exe)
 Copying SCF densities to generalized density rwf, IOpCl= 1 IROHF=0.

 **********************************************************************

            Population analysis using the SCF density.

 **********************************************************************

 Alpha  occ. eigenvalues --  -25.03477 -25.02512 -25.01994 -10.59646 -10.59035
 Alpha  occ. eigenvalues --  -10.58528 -10.49973 -10.48516 -10.47896  -1.51776
 Alpha  occ. eigenvalues --   -1.50447  -1.49858  -1.16819  -1.04791  -1.04080
 Alpha  occ. eigenvalues --   -0.92000  -0.89537  -0.82838  -0.80624  -0.80081
 Alpha  occ. eigenvalues --   -0.76395  -0.75923  -0.73203  -0.71040  -0.70221
 Alpha  occ. eigenvalues --   -0.69767  -0.69033  -0.65672  -0.63056  -0.61951
 Alpha  occ. eigenvalues --   -0.61775  -0.52326  -0.51713
 Alpha virt. eigenvalues --   -0.26033  -0.25665  -0.17608  -0.13884  -0.12834
 Alpha virt. eigenvalues --   -0.10758  -0.09865  -0.09155  -0.08794  -0.07341
 Alpha virt. eigenvalues --   -0.06519  -0.05297  -0.04807  -0.03861  -0.03385
 Alpha virt. eigenvalues --   -0.01971  -0.00830  -0.00624  -0.00146   0.00108
 Alpha virt. eigenvalues --    0.00433   0.00603   0.01044   0.01804   0.03397
 Alpha virt. eigenvalues --    0.03934   0.05744   0.06666   0.07176   0.07490
 Alpha virt. eigenvalues --    0.08015   0.09254   0.10712   0.11450   0.12458
 Alpha virt. eigenvalues --    0.13698   0.14024   0.15557   0.16602   0.18338
 Alpha virt. eigenvalues --    0.19288   0.20067   0.20100   0.22726   0.22880
 Alpha virt. eigenvalues --    0.24470   0.24964   0.26163   0.27422   0.28658
 Alpha virt. eigenvalues --    0.29210   0.30115   0.32401   0.34406   0.36397
 Alpha virt. eigenvalues --    0.36439   0.36974   0.37687   0.38116   0.40129
 Alpha virt. eigenvalues --    0.41134   0.41724   0.42331   0.48016   0.49505
 Alpha virt. eigenvalues --    0.50326   0.53269   0.57738   0.60128   0.61541
 Alpha virt. eigenvalues --    0.64396   0.66474   0.66916   0.67687   0.72075
 Alpha virt. eigenvalues --    0.72171   0.73488   0.76999   0.77079   0.80376
 Alpha virt. eigenvalues --    0.81721   0.84763   0.86099   0.89936   0.90915
 Alpha virt. eigenvalues --    0.96700   1.06491   1.12769   1.20262   1.21260
 Alpha virt. eigenvalues --    1.22974   1.24482   1.24617   1.25885   1.28019
 Alpha virt. eigenvalues --    1.29868   1.33163   1.33711   1.34284   1.35357
 Alpha virt. eigenvalues --    1.38095   1.38308   1.38765   1.43390   1.46534
 Alpha virt. eigenvalues --    1.47536   1.52148   1.59158   1.62441   1.64216
 Alpha virt. eigenvalues --    1.66032   1.71183   1.71983   1.75071   1.78660
 Alpha virt. eigenvalues --    1.79747   1.82934   1.84153   1.87292   1.91313
 Alpha virt. eigenvalues --    1.93503   1.93851   2.02001   2.06159   2.06615
 Alpha virt. eigenvalues --    2.19277   2.26134   2.36808   2.37599   2.43246
 Alpha virt. eigenvalues --    2.48503   2.48801   2.52164   2.54356   2.55215
 Alpha virt. eigenvalues --    2.55386   2.60829   2.65230   2.65676   2.83837
 Alpha virt. eigenvalues --    2.87759   2.90779   2.93705   3.01411   3.11356
 Alpha virt. eigenvalues --    3.18044   3.30558   3.40856   3.53601   3.54127
 Alpha virt. eigenvalues --    3.55882   3.57068   3.58004   3.62597   3.64833
 Alpha virt. eigenvalues --    3.69176   3.75046   3.77561   3.81139   3.83893
 Alpha virt. eigenvalues --    3.87909   3.92022   3.94231   4.00532   4.59243
 Alpha virt. eigenvalues --    4.62290   4.67534   4.74744   6.10541   6.13930
 Alpha virt. eigenvalues --    6.16683   6.22284   6.26954   6.32119   6.46890
 Alpha virt. eigenvalues --    6.60431   6.67269  23.33545  23.69936  23.77967
 Alpha virt. eigenvalues --   23.88900  23.95568  24.03857  66.69383  66.72094
 Alpha virt. eigenvalues --   66.74732
  Beta  occ. eigenvalues --  -25.03120 -25.02195 -25.01819 -10.59039 -10.58568
  Beta  occ. eigenvalues --  -10.58289 -10.49655 -10.48650 -10.48016  -1.51068
  Beta  occ. eigenvalues --   -1.49754  -1.49396  -1.15767  -1.03910  -1.02861
  Beta  occ. eigenvalues --   -0.91458  -0.88879  -0.82540  -0.80289  -0.79754
  Beta  occ. eigenvalues --   -0.76033  -0.73412  -0.70678  -0.70039  -0.69688
  Beta  occ. eigenvalues --   -0.69345  -0.68803  -0.65412  -0.62763  -0.61444
  Beta  occ. eigenvalues --   -0.59006  -0.51225
  Beta virt. eigenvalues --   -0.42098  -0.24233  -0.21938  -0.17035  -0.13769
  Beta virt. eigenvalues --   -0.12433  -0.10725  -0.09066  -0.09013  -0.07327
  Beta virt. eigenvalues --   -0.07179  -0.06308  -0.04992  -0.04635  -0.03490
  Beta virt. eigenvalues --   -0.03219  -0.01841  -0.00639  -0.00269  -0.00027
  Beta virt. eigenvalues --    0.00521   0.00588   0.00785   0.01065   0.01893
  Beta virt. eigenvalues --    0.03659   0.04070   0.05869   0.06997   0.07302
  Beta virt. eigenvalues --    0.07676   0.08350   0.09483   0.10867   0.11751
  Beta virt. eigenvalues --    0.12863   0.13921   0.14116   0.15751   0.16836
  Beta virt. eigenvalues --    0.18413   0.19409   0.20196   0.20301   0.22850
  Beta virt. eigenvalues --    0.22949   0.24606   0.25136   0.26244   0.27565
  Beta virt. eigenvalues --    0.28816   0.29307   0.31196   0.32799   0.34398
  Beta virt. eigenvalues --    0.36676   0.37134   0.37735   0.38225   0.38342
  Beta virt. eigenvalues --    0.40305   0.41326   0.41974   0.43567   0.48338
  Beta virt. eigenvalues --    0.50310   0.50881   0.53918   0.57847   0.60382
  Beta virt. eigenvalues --    0.61953   0.64726   0.66764   0.67080   0.68323
  Beta virt. eigenvalues --    0.72429   0.73665   0.73681   0.77410   0.77806
  Beta virt. eigenvalues --    0.80658   0.82152   0.85411   0.86294   0.91449
  Beta virt. eigenvalues --    0.92499   0.97555   1.07090   1.13479   1.21014
  Beta virt. eigenvalues --    1.21484   1.23200   1.24660   1.25372   1.26494
  Beta virt. eigenvalues --    1.28111   1.30146   1.33584   1.34468   1.34535
  Beta virt. eigenvalues --    1.35496   1.38245   1.39044   1.39201   1.44189
  Beta virt. eigenvalues --    1.47300   1.48442   1.52394   1.59455   1.63233
  Beta virt. eigenvalues --    1.65832   1.66789   1.71307   1.72633   1.75417
  Beta virt. eigenvalues --    1.78763   1.80095   1.83612   1.84651   1.87661
  Beta virt. eigenvalues --    1.91916   1.94160   1.94572   2.02258   2.06334
  Beta virt. eigenvalues --    2.07731   2.19488   2.26305   2.37204   2.39331
  Beta virt. eigenvalues --    2.43441   2.48593   2.50825   2.52222   2.54397
  Beta virt. eigenvalues --    2.55433   2.55791   2.63012   2.65279   2.65990
  Beta virt. eigenvalues --    2.85257   2.88065   2.91119   2.94019   3.01728
  Beta virt. eigenvalues --    3.11844   3.18188   3.30836   3.41298   3.54065
  Beta virt. eigenvalues --    3.54480   3.56787   3.57940   3.58615   3.63512
  Beta virt. eigenvalues --    3.65540   3.69809   3.75951   3.78521   3.81915
  Beta virt. eigenvalues --    3.84014   3.88448   3.92304   3.94534   4.00726
  Beta virt. eigenvalues --    4.59587   4.63175   4.67921   4.75078   6.11715
  Beta virt. eigenvalues --    6.15116   6.17685   6.22485   6.27170   6.32307
  Beta virt. eigenvalues --    6.47127   6.60680   6.67510  23.33847  23.70408
  Beta virt. eigenvalues --   23.78179  23.89257  23.95582  24.03984  66.69635
  Beta virt. eigenvalues --   66.72349  66.74945
          Condensed to atoms (all electrons):
               1          2          3          4          5          6
     1  C    9.232735  -1.524371   1.527529  -1.013511  -0.358345  -2.208811
     2  C   -1.524371   9.661203  -0.917419  -1.873591  -1.372703   1.680405
     3  C    1.527529  -0.917419  10.854350  -2.170863  -1.670193  -1.735984
     4  C   -1.013511  -1.873591  -2.170863  10.667277  -0.918265   1.283673
     5  C   -0.358345  -1.372703  -1.670193  -0.918265  11.563754  -1.968824
     6  C   -2.208811   1.680405  -1.735984   1.283673  -1.968824   9.187895
     7  H    0.550964  -0.094685   0.090569   0.014949  -0.057128  -0.200810
     8  H   -0.091709   0.536449  -0.174913  -0.060250   0.021175   0.069087
     9  F    0.041132  -0.299077   0.719307  -0.314555   0.001016  -0.041032
    10  F   -0.010609  -0.025965  -0.296620   0.654950  -0.236828   0.006993
    11  F   -0.311695   0.051930  -0.034711   0.031120  -0.259572   0.629557
    12  H   -0.040609   0.004382  -0.038162  -0.100281   0.595895  -0.131782
               7          8          9         10         11         12
     1  C    0.550964  -0.091709   0.041132  -0.010609  -0.311695  -0.040609
     2  C   -0.094685   0.536449  -0.299077  -0.025965   0.051930   0.004382
     3  C    0.090569  -0.174913   0.719307  -0.296620  -0.034711  -0.038162
     4  C    0.014949  -0.060250  -0.314555   0.654950   0.031120  -0.100281
     5  C   -0.057128   0.021175   0.001016  -0.236828  -0.259572   0.595895
     6  C   -0.200810   0.069087  -0.041032   0.006993   0.629557  -0.131782
     7  H    0.389631  -0.009147   0.001895   0.000132  -0.023347  -0.000956
     8  H   -0.009147   0.393503  -0.024468   0.000419   0.002161   0.001047
     9  F    0.001895  -0.024468   8.950545   0.011713   0.000179   0.000513
    10  F    0.000132   0.000419   0.011713   8.977703   0.000094  -0.019098
    11  F   -0.023347   0.002161   0.000179   0.000094   8.961775  -0.016642
    12  H   -0.000956   0.001047   0.000513  -0.019098  -0.016642   0.396230
          Atomic-Atomic Spin Densities.
               1          2          3          4          5          6
     1  C    0.170293   0.026074  -0.054028   0.002304  -0.018194   0.082381
     2  C    0.026074  -0.176208   0.078444   0.009200   0.003166  -0.043812
     3  C   -0.054028   0.078444   0.327589   0.078677  -0.023423   0.018765
     4  C    0.002304   0.009200   0.078677   0.102323   0.028800  -0.030240
     5  C   -0.018194   0.003166  -0.023423   0.028800  -0.177163   0.054249
     6  C    0.082381  -0.043812   0.018765  -0.030240   0.054249   0.285931
     7  H   -0.010510   0.007537  -0.004633  -0.000317   0.001831   0.007043
     8  H    0.003352  -0.007545   0.006579   0.001076  -0.001837  -0.000933
     9  F    0.002348  -0.001998  -0.056411  -0.002590   0.003458  -0.002335
    10  F   -0.002062   0.003149  -0.005835  -0.022049  -0.000649   0.001914
    11  F   -0.001457  -0.000401   0.000489  -0.001637   0.003824  -0.050097
    12  H    0.001144  -0.001647   0.000369   0.004017  -0.006087   0.002656
               7          8          9         10         11         12
     1  C   -0.010510   0.003352   0.002348  -0.002062  -0.001457   0.001144
     2  C    0.007537  -0.007545  -0.001998   0.003149  -0.000401  -0.001647
     3  C   -0.004633   0.006579  -0.056411  -0.005835   0.000489   0.000369
     4  C   -0.000317   0.001076  -0.002590  -0.022049  -0.001637   0.004017
     5  C    0.001831  -0.001837   0.003458  -0.000649   0.003824  -0.006087
     6  C    0.007043  -0.000933  -0.002335   0.001914  -0.050097   0.002656
     7  H   -0.015635   0.000945   0.000088  -0.000027  -0.000082   0.000134
     8  H    0.000945   0.000669  -0.000306   0.000116   0.000083  -0.000077
     9  F    0.000088  -0.000306   0.133052   0.001679   0.000003   0.000097
    10  F   -0.000027   0.000116   0.001679   0.062610  -0.000014  -0.000070
    11  F   -0.000082   0.000083   0.000003  -0.000014   0.115854  -0.000073
    12  H    0.000134  -0.000077   0.000097  -0.000070  -0.000073   0.001461
 Mulliken charges and spin densities:
               1          2
     1  C    0.207299   0.201644
     2  C    0.173442  -0.104042
     3  C   -0.152889   0.366583
     4  C   -0.200652   0.169562
     5  C    0.660019  -0.132026
     6  C   -0.570367   0.325523
     7  H    0.337934  -0.013626
     8  H    0.336647   0.002121
     9  F   -0.047166   0.077084
    10  F   -0.062884   0.038762
    11  F   -0.030847   0.066491
    12  H    0.349465   0.001924
 Sum of Mulliken charges =   1.00000   1.00000
 Mulliken charges and spin densities with hydrogens summed into heavy atoms:
               1          2
     1  C    0.545233   0.188018
     2  C    0.510089  -0.101921
     3  C   -0.152889   0.366583
     4  C   -0.200652   0.169562
     5  C    1.009483  -0.130102
     6  C   -0.570367   0.325523
     9  F   -0.047166   0.077084
    10  F   -0.062884   0.038762
    11  F   -0.030847   0.066491
 Electronic spatial extent (au):  <R**2>=           1110.2579
 Charge=              1.0000 electrons
 Dipole moment (field-independent basis, Debye):
    X=              1.1236    Y=              0.4410    Z=              0.0000  Tot=              1.2071
 Quadrupole moment (field-independent basis, Debye-Ang):
   XX=            -34.0554   YY=            -40.2963   ZZ=            -46.2110
   XY=             -1.8790   XZ=             -0.0000   YZ=             -0.0000
 Traceless Quadrupole moment (field-independent basis, Debye-Ang):
   XX=              6.1322   YY=             -0.1087   ZZ=             -6.0235
   XY=             -1.8790   XZ=             -0.0000   YZ=             -0.0000
 Octapole moment (field-independent basis, Debye-Ang**2):
  XXX=             39.7896  YYY=             16.4042  ZZZ=              0.0000  XYY=             13.5883
  XXY=             12.5322  XXZ=              0.0000  XZZ=              9.2245  YZZ=              4.9728
  YYZ=              0.0000  XYZ=             -0.0000
 Hexadecapole moment (field-independent basis, Debye-Ang**3):
 XXXX=           -360.5127 YYYY=           -698.3534 ZZZZ=            -41.4254 XXXY=            -55.6722
 XXXZ=             -0.0000 YYYX=            -44.6585 YYYZ=             -0.0000 ZZZX=             -0.0000
 ZZZY=             -0.0000 XXYY=           -164.1873 XXZZ=            -78.7920 YYZZ=           -120.0801
 XXYZ=             -0.0000 YYXZ=             -0.0000 ZZXY=            -11.9724
 N-N= 4.281102534582D+02 E-N=-2.090308983391D+03  KE= 5.276295934976D+02
                          Isotropic Fermi Contact Couplings
        Atom                 a.u.       MegaHertz       Gauss      10(-4) cm-1
     1  C(13)              0.00429       4.81820       1.71925       1.60718
     2  C(13)             -0.01962     -22.05512      -7.86982      -7.35680
     3  C(13)              0.01637      18.39786       6.56481       6.13687
     4  C(13)             -0.00283      -3.17904      -1.13436      -1.06041
     5  C(13)             -0.01612     -18.11950      -6.46549      -6.04401
     6  C(13)              0.00958      10.76642       3.84173       3.59129
     7  H(1)              -0.00362     -16.19692      -5.77946      -5.40271
     8  H(1)               0.00063       2.80056       0.99931       0.93417
     9  F(19)              0.01810      76.14835      27.17163      25.40036
    10  F(19)              0.00790      33.21952      11.85355      11.08084
    11  F(19)              0.01524      64.10908      22.87571      21.38449
    12  H(1)               0.00064       2.84393       1.01478       0.94863
 --------------------------------------------------------
       Center         ----  Spin Dipole Couplings  ----
                      3XX-RR        3YY-RR        3ZZ-RR
 --------------------------------------------------------
     1   Atom       -0.120773     -0.132576      0.253349
     2   Atom        0.037990      0.036152     -0.074142
     3   Atom       -0.237805     -0.232333      0.470139
     4   Atom       -0.092461     -0.109721      0.202182
     5   Atom        0.037397      0.033935     -0.071331
     6   Atom       -0.183793     -0.179945      0.363738
     7   Atom        0.018602     -0.012974     -0.005628
     8   Atom        0.007019     -0.000794     -0.006225
     9   Atom       -0.360717     -0.391111      0.751828
    10   Atom       -0.185717     -0.185653      0.371370
    11   Atom       -0.321220     -0.338025      0.659244
    12   Atom        0.004830      0.000750     -0.005580
 --------------------------------------------------------
                        XY            XZ            YZ
 --------------------------------------------------------
     1   Atom       -0.000635      0.000000      0.000000
     2   Atom        0.004567      0.000000     -0.000000
     3   Atom       -0.003949     -0.000000     -0.000000
     4   Atom       -0.002156      0.000000     -0.000000
     5   Atom        0.001626     -0.000000      0.000000
     6   Atom       -0.005007      0.000000     -0.000000
     7   Atom        0.013538     -0.000000      0.000000
     8   Atom        0.002404      0.000000     -0.000000
     9   Atom       -0.000559     -0.000000     -0.000000
    10   Atom       -0.003351      0.000000     -0.000000
    11   Atom       -0.000499      0.000000      0.000000
    12   Atom        0.001764     -0.000000      0.000000
 --------------------------------------------------------


 ---------------------------------------------------------------------------------
              Anisotropic Spin Dipole Couplings in Principal Axis System
 ---------------------------------------------------------------------------------

       Atom             a.u.   MegaHertz   Gauss  10(-4) cm-1        Axes

              Baa    -0.1326   -17.795    -6.350    -5.936  0.0536  0.9986 -0.0000
     1 C(13)  Bbb    -0.1207   -16.202    -5.781    -5.404  0.9986 -0.0536 -0.0000
              Bcc     0.2533    33.997    12.131    11.340  0.0000  0.0000  1.0000
 
              Baa    -0.0741    -9.949    -3.550    -3.319 -0.0000  0.0000  1.0000
     2 C(13)  Bbb     0.0324     4.349     1.552     1.451 -0.6336  0.7737 -0.0000
              Bcc     0.0417     5.600     1.998     1.868  0.7737  0.6336  0.0000
 
              Baa    -0.2399   -32.189   -11.486   -10.737  0.8859  0.4640  0.0000
     3 C(13)  Bbb    -0.2303   -30.899   -11.026   -10.307 -0.4640  0.8859 -0.0000
              Bcc     0.4701    63.088    22.511    21.044 -0.0000 -0.0000  1.0000
 
              Baa    -0.1100   -14.759    -5.266    -4.923  0.1221  0.9925  0.0000
     4 C(13)  Bbb    -0.0922   -12.372    -4.415    -4.127  0.9925 -0.1221 -0.0000
              Bcc     0.2022    27.131     9.681     9.050  0.0000 -0.0000  1.0000
 
              Baa    -0.0713    -9.572    -3.416    -3.193  0.0000 -0.0000  1.0000
     5 C(13)  Bbb     0.0333     4.467     1.594     1.490 -0.3682  0.9297  0.0000
              Bcc     0.0380     5.105     1.821     1.703  0.9297  0.3682 -0.0000
 
              Baa    -0.1872   -25.125    -8.965    -8.381  0.8242  0.5663 -0.0000
     6 C(13)  Bbb    -0.1765   -23.685    -8.451    -7.901 -0.5663  0.8242  0.0000
              Bcc     0.3637    48.810    17.417    16.281  0.0000 -0.0000  1.0000
 
              Baa    -0.0180    -9.595    -3.424    -3.201 -0.3470  0.9378 -0.0000
     7 H(1)   Bbb    -0.0056    -3.003    -1.072    -1.002  0.0000  0.0000  1.0000
              Bcc     0.0236    12.598     4.495     4.202  0.9378  0.3470 -0.0000
 
              Baa    -0.0062    -3.321    -1.185    -1.108 -0.0000  0.0000  1.0000
     8 H(1)   Bbb    -0.0015    -0.787    -0.281    -0.262 -0.2723  0.9622 -0.0000
              Bcc     0.0077     4.108     1.466     1.370  0.9622  0.2723  0.0000
 
              Baa    -0.3911  -196.431   -70.092   -65.522  0.0184  0.9998  0.0000
     9 F(19)  Bbb    -0.3607  -181.156   -64.641   -60.427  0.9998 -0.0184  0.0000
              Bcc     0.7518   377.587   134.732   125.950 -0.0000 -0.0000  1.0000
 
              Baa    -0.1890   -94.939   -33.876   -31.668  0.7104  0.7038 -0.0000
    10 F(19)  Bbb    -0.1823   -91.573   -32.676   -30.545 -0.7038  0.7104  0.0000
              Bcc     0.3714   186.512    66.552    62.214  0.0000 -0.0000  1.0000
 
              Baa    -0.3380  -169.772   -60.579   -56.630  0.0297  0.9996 -0.0000
    11 F(19)  Bbb    -0.3212  -161.317   -57.562   -53.810  0.9996 -0.0297 -0.0000
              Bcc     0.6592   331.089   118.141   110.440  0.0000  0.0000  1.0000
 
              Baa    -0.0056    -2.977    -1.062    -0.993  0.0000 -0.0000  1.0000
    12 H(1)   Bbb     0.0001     0.050     0.018     0.017 -0.3490  0.9371  0.0000
              Bcc     0.0055     2.928     1.045     0.977  0.9371  0.3490 -0.0000
 

 ---------------------------------------------------------------------------------

 No NMR shielding tensors so no spin-rotation constants.
 Leave Link  601 at Wed Jan 29 15:56:38 2025, MaxMem=   104857600 cpu:               0.1 elap:               0.1
 (Enter /sw/cluster/pub/apps//g16/l701.exe)
 ... and contract with generalized density number  0.
 Compute integral first derivatives.
 Leave Link  701 at Wed Jan 29 15:56:38 2025, MaxMem=   104857600 cpu:               0.0 elap:               0.0
 (Enter /sw/cluster/pub/apps//g16/l702.exe)
 L702 exits ... SP integral derivatives will be done elsewhere.
 Leave Link  702 at Wed Jan 29 15:56:38 2025, MaxMem=   104857600 cpu:               0.0 elap:               0.0
 (Enter /sw/cluster/pub/apps//g16/l703.exe)
 Integral derivatives from FoFJK, PRISM(SPDF).
 Compute integral first derivatives, UseDBF=F ICtDFT=           0.
 Calling FoFJK, ICntrl=      2127 FMM=F ISym2X=0 I1Cent= 0 IOpClX= 1 NMat=1 NMatS=1 NMatT=0.
 FoFJK:  IHMeth= 1 ICntrl=    2127 DoSepK=F KAlg= 0 I1Cent=           0 FoldK=F
 IRaf=         0 NMat=       1 IRICut=       1 DoRegI=T DoRafI=F ISym2E= 0 IDoP0=0 IntGTp=1.
 FoFCou: FMM=F IPFlag=           0 FMFlag=      100000 FMFlg1=         800
         NFxFlg=           0 DoJE=F BraDBF=F KetDBF=F FulRan=T
         wScrn=  0.000000 ICntrl=      2127 IOpCl=  1 I1Cent=           0 NGrid=           0
         NMat0=    1 NMatS0=      1 NMatT0=    0 NMatD0=    1 NMtDS0=    0 NMtDT0=    0
 Symmetry not used in FoFCou.
 Leave Link  703 at Wed Jan 29 15:56:50 2025, MaxMem=   104857600 cpu:              11.7 elap:              11.7
 (Enter /sw/cluster/pub/apps//g16/l716.exe)
 Dipole        = 4.42073365D-01 1.73496084D-01 2.77415968D-09
 -------------------------------------------------------------------
 Center     Atomic                   Forces (Hartrees/Bohr)
 Number     Number              X              Y              Z
 -------------------------------------------------------------------
      1        6           0.033253843   -0.033751390    0.000000002
      2        6           0.021695466    0.019315199   -0.000000001
      3        6           0.022089329   -0.058940535   -0.000000000
      4        6          -0.066210535    0.019170965    0.000000002
      5        6          -0.013271147   -0.011110429    0.000000000
      6        6          -0.030166347    0.049487425   -0.000000002
      7        1           0.001707875    0.000223325   -0.000000000
      8        1           0.000751458   -0.000039564   -0.000000000
      9        9          -0.000555884    0.041449095    0.000000000
     10        9           0.029524063    0.013698675   -0.000000001
     11        9           0.002397265   -0.039823263    0.000000001
     12        1          -0.001215386    0.000320496   -0.000000000
 -------------------------------------------------------------------
 Cartesian Forces:  Max     0.066210535 RMS     0.023472810
 Leave Link  716 at Wed Jan 29 15:56:50 2025, MaxMem=   104857600 cpu:               0.0 elap:               0.0
 (Enter /sw/cluster/pub/apps//g16/l103.exe)

 GradGradGradGradGradGradGradGradGradGradGradGradGradGradGradGradGradGrad
 Berny optimization.
 FormGI is forming the generalized inverse of G from B-inverse, IUseBI=4.
 Internal  Forces:  Max     0.042715322 RMS     0.013149898
 Search for a local minimum.
 Step number   1 out of a maximum of   64
 All quantities printed in internal units (Hartrees-Bohrs-Radians)
 RMS Force = .13150D-01 SwitMx=.10000D-02 MixMth= 1
 Mixed Optimization -- RFO/linear search
 Second derivative matrix not updated -- first step.
 ITU=  0
     Eigenvalues ---    0.02250   0.02265   0.02274   0.02280   0.02292
     Eigenvalues ---    0.02295   0.02305   0.02313   0.02315   0.16000
     Eigenvalues ---    0.16000   0.16000   0.22383   0.23506   0.24613
     Eigenvalues ---    0.25000   0.25000   0.25000   0.35541   0.35641
     Eigenvalues ---    0.35645   0.43547   0.43899   0.47635   0.48120
     Eigenvalues ---    0.48490   0.48728   0.57146   0.58287   0.58983
 RFO step:  Lambda=-1.82385050D-02 EMin= 2.24993700D-02
 Linear search not attempted -- first point.
 Iteration  1 RMS(Cart)=  0.03477265 RMS(Int)=  0.00030759
 Iteration  2 RMS(Cart)=  0.00042816 RMS(Int)=  0.00002095
 Iteration  3 RMS(Cart)=  0.00000013 RMS(Int)=  0.00002095
 ITry= 1 IFail=0 DXMaxC= 1.03D-01 DCOld= 1.00D+10 DXMaxT= 3.00D-01 DXLimC= 3.00D+00 Rises=F
 Variable       Old X    -DE/DX   Delta X   Delta X   Delta X     New X
                                 (Linear)    (Quad)   (Total)
    R1        2.62719  -0.01962   0.00000  -0.04005  -0.04004   2.58715
    R2        2.61280   0.04166   0.00000   0.08227   0.08230   2.69510
    R3        2.04647   0.00158   0.00000   0.00421   0.00421   2.05068
    R4        2.61068   0.01506   0.00000   0.02994   0.02992   2.64059
    R5        2.04806   0.00066   0.00000   0.00177   0.00177   2.04983
    R6        2.62396   0.04272   0.00000   0.08678   0.08675   2.71070
    R7        2.52322  -0.04144   0.00000  -0.06893  -0.06893   2.45429
    R8        2.61221  -0.01503   0.00000  -0.02966  -0.02967   2.58253
    R9        2.51755  -0.03239   0.00000  -0.05326  -0.05326   2.46428
   R10        2.61627   0.00859   0.00000   0.01692   0.01695   2.63322
   R11        2.04640   0.00121   0.00000   0.00324   0.00324   2.04964
   R12        2.53273  -0.03983   0.00000  -0.06755  -0.06755   2.46518
    A1        2.07023  -0.00010   0.00000   0.00014   0.00019   2.07042
    A2        2.11907  -0.00066   0.00000  -0.00404  -0.00407   2.11500
    A3        2.09388   0.00076   0.00000   0.00390   0.00388   2.09776
    A4        2.09400  -0.00833   0.00000  -0.03331  -0.03332   2.06068
    A5        2.11514   0.00380   0.00000   0.01460   0.01460   2.12975
    A6        2.07404   0.00453   0.00000   0.01872   0.01872   2.09276
    A7        2.09785   0.00799   0.00000   0.03202   0.03196   2.12981
    A8        2.10382  -0.00252   0.00000  -0.01050  -0.01047   2.09335
    A9        2.08152  -0.00547   0.00000  -0.02152  -0.02149   2.06003
   A10        2.10868  -0.00105   0.00000  -0.00190  -0.00195   2.10672
   A11        2.08242  -0.00353   0.00000  -0.01417  -0.01414   2.06827
   A12        2.09209   0.00458   0.00000   0.01607   0.01610   2.10819
   A13        2.05862  -0.00841   0.00000  -0.03415  -0.03414   2.02448
   A14        2.10486   0.00387   0.00000   0.01519   0.01519   2.12005
   A15        2.11970   0.00454   0.00000   0.01896   0.01895   2.13865
   A16        2.13699   0.00990   0.00000   0.03721   0.03727   2.17426
   A17        2.07999  -0.00775   0.00000  -0.02904  -0.02907   2.05093
   A18        2.06620  -0.00215   0.00000  -0.00817  -0.00820   2.05800
    D1        0.00000  -0.00000   0.00000  -0.00000  -0.00000   0.00000
    D2        3.14159  -0.00000   0.00000  -0.00000   0.00000   3.14159
    D3       -3.14159  -0.00000   0.00000  -0.00000   0.00000  -3.14159
    D4       -0.00000   0.00000   0.00000   0.00000   0.00000   0.00000
    D5       -0.00000   0.00000   0.00000   0.00000   0.00000   0.00000
    D6        3.14159  -0.00000   0.00000  -0.00000  -0.00000   3.14159
    D7        3.14159   0.00000   0.00000   0.00000   0.00000   3.14159
    D8        0.00000  -0.00000   0.00000  -0.00000  -0.00000   0.00000
    D9       -0.00000   0.00000   0.00000   0.00000   0.00000   0.00000
   D10        3.14159   0.00000   0.00000   0.00000   0.00000   3.14159
   D11        3.14159  -0.00000   0.00000  -0.00000   0.00000   3.14159
   D12       -0.00000  -0.00000   0.00000   0.00000   0.00000   0.00000
   D13       -0.00000   0.00000   0.00000   0.00000   0.00000   0.00000
   D14        3.14159  -0.00000   0.00000  -0.00000  -0.00000   3.14159
   D15        3.14159   0.00000   0.00000   0.00000   0.00000   3.14159
   D16        0.00000  -0.00000   0.00000  -0.00000  -0.00000  -0.00000
   D17        0.00000  -0.00000   0.00000  -0.00000  -0.00000   0.00000
   D18       -3.14159  -0.00000   0.00000  -0.00000  -0.00000   3.14159
   D19        3.14159   0.00000   0.00000   0.00000   0.00000  -3.14159
   D20       -0.00000   0.00000   0.00000   0.00000   0.00000   0.00000
   D21        0.00000  -0.00000   0.00000  -0.00000  -0.00000   0.00000
   D22        3.14159   0.00000   0.00000   0.00000   0.00000   3.14159
   D23        3.14159  -0.00000   0.00000  -0.00000   0.00000   3.14159
   D24       -0.00000   0.00000   0.00000   0.00000   0.00000   0.00000
         Item               Value     Threshold  Converged?
 Maximum Force            0.042715     0.000450     NO 
 RMS     Force            0.013150     0.000300     NO 
 Maximum Displacement     0.102949     0.001800     NO 
 RMS     Displacement     0.034917     0.001200     NO 
 Predicted change in Energy=-9.465575D-03
 Lowest energy point so far.  Saving SCF results.
 GradGradGradGradGradGradGradGradGradGradGradGradGradGradGradGradGradGrad

 Leave Link  103 at Wed Jan 29 15:56:50 2025, MaxMem=   104857600 cpu:               0.0 elap:               0.0
 (Enter /sw/cluster/pub/apps//g16/l202.exe)
                          Input orientation:                          
 ---------------------------------------------------------------------
 Center     Atomic      Atomic             Coordinates (Angstroms)
 Number     Number       Type             X           Y           Z
 ---------------------------------------------------------------------
      1          6           0        1.231248    0.673008   -0.000000
      2          6           0        1.241631   -0.696012    0.000000
      3          6           0        0.013654   -1.362823    0.000000
      4          6           0       -1.235210   -0.657159   -0.000000
      5          6           0       -1.264737    0.709140    0.000000
      6          6           0       -0.025748    1.346778   -0.000000
      7          1           0        2.155371    1.241869   -0.000000
      8          1           0        2.165608   -1.264247    0.000000
      9          9           0       -0.018923   -2.661168    0.000000
     10          9           0       -2.340760   -1.348739   -0.000000
     11          9           0       -0.010209    2.651204    0.000000
     12          1           0       -2.201845    1.255253    0.000000
 ---------------------------------------------------------------------
                    Distance matrix (angstroms):
                    1          2          3          4          5
     1  C    0.000000
     2  C    1.369060   0.000000
     3  C    2.372160   1.397342   0.000000
     4  C    2.802278   2.477146   1.434442   0.000000
     5  C    2.496247   2.873384   2.434608   1.366618   0.000000
     6  C    1.426185   2.404005   2.709887   2.340632   1.393440
     7  H    1.085175   2.142499   3.372146   3.886173   3.461349
     8  H    2.150810   1.084723   2.154210   3.454579   3.957464
     9  F    3.560851   2.334702   1.298754   2.344229   3.593193
    10  F    4.104474   3.641371   2.354457   1.304042   2.322218
    11  F    2.335481   3.573648   4.014098   3.527873   2.312023
    12  H    3.482117   3.957899   3.429688   2.142826   1.084625
                    6          7          8          9         10
     6  C    0.000000
     7  H    2.183640   0.000000
     8  H    3.408737   2.506136   0.000000
     9  F    4.007952   4.467801   2.592984   0.000000
    10  F    3.553181   5.189070   4.507160   2.667096   0.000000
    11  F    1.304518   2.583788   4.479390   5.312379   4.629364
    12  H    2.178021   4.357236   5.042075   4.483693   2.607695
                   11         12
    11  F    0.000000
    12  H    2.598451   0.000000
 Symmetry turned off by external request.
 Stoichiometry    C6H3F3(1+,2)
 Framework group  C1[X(C6H3F3)]
 Deg. of freedom    30
 Full point group                 C1      NOp   1
 Rotational constants (GHZ):           3.0222568           1.3280516           0.9226272
 Leave Link  202 at Wed Jan 29 15:56:50 2025, MaxMem=   104857600 cpu:               0.0 elap:               0.0
 (Enter /sw/cluster/pub/apps//g16/l301.exe)
 Standard basis: 6-311++G(d,p) (5D, 7F)
 Ernie: Thresh=  0.10000D-02 Tol=  0.10000D-05 Strict=F.
   219 basis functions,   351 primitive gaussians,   228 cartesian basis functions
    33 alpha electrons       32 beta electrons
       nuclear repulsion energy       429.8735049467 Hartrees.
 IExCor= 1009 DFT=T Ex+Corr=PBE1PBE ExCW=0 ScaHFX=  0.250000
 ScaDFX=  0.750000  0.750000  1.000000  1.000000 ScalE2=  1.000000  1.000000
 IRadAn=      5 IRanWt=     -1 IRanGd=            0 ICorTp=0 IEmpDi=  4
 NAtoms=   12 NActive=   12 NUniq=   12 SFac= 1.00D+00 NAtFMM=   60 NAOKFM=F Big=F
 Integral buffers will be    131072 words long.
 Raffenetti 2 integral format.
 Two-electron integral symmetry is turned off.
 Leave Link  301 at Wed Jan 29 15:56:50 2025, MaxMem=   104857600 cpu:               0.0 elap:               0.0
 (Enter /sw/cluster/pub/apps//g16/l302.exe)
 NPDir=0 NMtPBC=     1 NCelOv=     1 NCel=       1 NClECP=     1 NCelD=      1
         NCelK=      1 NCelE2=     1 NClLst=     1 CellRange=     0.0.
 One-electron integrals computed using PRISM.
 NBasis=   219 RedAO= T EigKep=  2.37D-06  NBF=   219
 NBsUse=   219 1.00D-06 EigRej= -1.00D+00 NBFU=   219
 Precomputing XC quadrature grid using
 IXCGrd= 4 IRadAn=           5 IRanWt=          -1 IRanGd=           0 AccXCQ= 0.00D+00.
 Generated NRdTot=       0 NPtTot=           0 NUsed=           0 NTot=          32
 NSgBfM=   228   228   228   228   228 MxSgAt=    12 MxSgA2=    12.
 Leave Link  302 at Wed Jan 29 15:56:50 2025, MaxMem=   104857600 cpu:               0.1 elap:               0.1
 (Enter /sw/cluster/pub/apps//g16/l303.exe)
 DipDrv:  MaxL=1.
 Leave Link  303 at Wed Jan 29 15:56:50 2025, MaxMem=   104857600 cpu:               0.0 elap:               0.0
 (Enter /sw/cluster/pub/apps//g16/l401.exe)
 Initial guess from the checkpoint file:  "1-2-4-TFB-CAT.chk"
 B after Tr=    -0.001774    0.001364    0.000000
         Rot=    1.000000    0.000000    0.000000    0.000071 Ang=   0.01 deg.
 Guess basis will be translated and rotated to current coordinates.
 JPrj=2 DoOrth=T DoCkMO=T.
 Initial guess <Sx>= 0.0000 <Sy>= 0.0000 <Sz>= 0.5000 <S**2>= 0.7648 S= 0.5074
 Generating alternative initial guess.
 ExpMin= 3.60D-02 ExpMax= 1.14D+04 ExpMxC= 1.72D+03 IAcc=3 IRadAn=         5 AccDes= 0.00D+00
 Harris functional with IExCor= 1009 and IRadAn=       5 diagonalized for initial guess.
 HarFok:  IExCor= 1009 AccDes= 0.00D+00 IRadAn=         5 IDoV= 1 UseB2=F ITyADJ=14
 ICtDFT=  3500011 ScaDFX=  1.000000  1.000000  1.000000  1.000000
 FoFCou: FMM=F IPFlag=           0 FMFlag=      100000 FMFlg1=           0
         NFxFlg=           0 DoJE=T BraDBF=F KetDBF=T FulRan=T
         wScrn=  0.000000 ICntrl=       500 IOpCl=  0 I1Cent=   200000004 NGrid=           0
         NMat0=    1 NMatS0=      1 NMatT0=    0 NMatD0=    1 NMtDS0=    0 NMtDT0=    0
 Symmetry not used in FoFCou.
 Harris En= -529.307938132757    
 Leave Link  401 at Wed Jan 29 15:56:51 2025, MaxMem=   104857600 cpu:               1.3 elap:               1.3
 (Enter /sw/cluster/pub/apps//g16/l502.exe)
 Two-electron integral symmetry not used.
 UHF open shell SCF:
 Using DIIS extrapolation, IDIIS=  1040.
 NGot=   104857600 LenX=   104750604 LenY=   104698179
 Requested convergence on RMS density matrix=1.00D-08 within 128 cycles.
 Requested convergence on MAX density matrix=1.00D-06.
 Requested convergence on             energy=1.00D-06.
 No special actions if energy rises.
 Fock matrices will be formed incrementally for  20 cycles.

 Cycle   1  Pass 1  IDiag  1:
 FoFJK:  IHMeth= 1 ICntrl=       0 DoSepK=F KAlg= 0 I1Cent=           0 FoldK=F
 IRaf= 950000000 NMat=       1 IRICut=       1 DoRegI=T DoRafI=F ISym2E= 0 IDoP0=0 IntGTp=1.
 FoFCou: FMM=F IPFlag=           0 FMFlag=      100000 FMFlg1=           0
         NFxFlg=           0 DoJE=F BraDBF=F KetDBF=F FulRan=T
         wScrn=  0.000000 ICntrl=         0 IOpCl=  1 I1Cent=           0 NGrid=           0
         NMat0=    1 NMatS0=      1 NMatT0=    0 NMatD0=    1 NMtDS0=    0 NMtDT0=    0
 Symmetry not used in FoFCou.
 E= -529.203860798322    
 DIIS: error= 3.02D-03 at cycle   1 NSaved=   1.
 NSaved= 1 IEnMin= 1 EnMin= -529.203860798322     IErMin= 1 ErrMin= 3.02D-03
 ErrMax= 3.02D-03  0.00D+00 EMaxC= 1.00D-01 BMatC= 2.38D-02 BMatP= 2.38D-02
 IDIUse=3 WtCom= 9.70D-01 WtEn= 3.02D-02
 Coeff-Com:  0.100D+01
 Coeff-En:   0.100D+01
 Coeff:      0.100D+01
 Gap=     0.490 Goal=   None    Shift=    0.000
 Gap=     0.488 Goal=   None    Shift=    0.000
 GapD=    0.488 DampG=2.000 DampE=1.000 DampFc=2.0000 IDamp=-1.
 RMSDP=4.87D-03 MaxDP=2.27D-01              OVMax= 2.80D-02

 Cycle   2  Pass 1  IDiag  1:
 RMSU=  3.32D-03    CP:  9.20D-01
 E= -529.211500641339     Delta-E=       -0.007639843017 Rises=F Damp=F
 DIIS: error= 1.36D-03 at cycle   2 NSaved=   2.
 NSaved= 2 IEnMin= 2 EnMin= -529.211500641339     IErMin= 2 ErrMin= 1.36D-03
 ErrMax= 1.36D-03  0.00D+00 EMaxC= 1.00D-01 BMatC= 1.55D-03 BMatP= 2.38D-02
 IDIUse=3 WtCom= 9.86D-01 WtEn= 1.36D-02
 Coeff-Com:  0.581D-01 0.942D+00
 Coeff-En:   0.000D+00 0.100D+01
 Coeff:      0.573D-01 0.943D+00
 Gap=     0.244 Goal=   None    Shift=    0.000
 Gap=     0.107 Goal=   None    Shift=    0.000
 RMSDP=4.45D-04 MaxDP=1.98D-02 DE=-7.64D-03 OVMax= 1.00D-02

 Cycle   3  Pass 1  IDiag  1:
 RMSU=  3.96D-04    CP:  9.18D-01  1.05D+00
 E= -529.211439095582     Delta-E=        0.000061545757 Rises=F Damp=F
 DIIS: error= 1.83D-03 at cycle   3 NSaved=   3.
 NSaved= 3 IEnMin= 2 EnMin= -529.211500641339     IErMin= 2 ErrMin= 1.36D-03
 ErrMax= 1.83D-03  0.00D+00 EMaxC= 1.00D-01 BMatC= 2.04D-03 BMatP= 1.55D-03
 IDIUse=3 WtCom= 1.89D-01 WtEn= 8.11D-01
 Coeff-Com: -0.158D-01 0.543D+00 0.473D+00
 Coeff-En:   0.000D+00 0.545D+00 0.455D+00
 Coeff:     -0.299D-02 0.545D+00 0.458D+00
 Gap=     0.244 Goal=   None    Shift=    0.000
 Gap=     0.110 Goal=   None    Shift=    0.000
 RMSDP=2.08D-04 MaxDP=1.58D-02 DE= 6.15D-05 OVMax= 6.41D-03

 Cycle   4  Pass 1  IDiag  1:
 RMSU=  1.23D-04    CP:  9.15D-01  1.06D+00  7.03D-01
 E= -529.211805119124     Delta-E=       -0.000366023542 Rises=F Damp=F
 DIIS: error= 4.04D-04 at cycle   4 NSaved=   4.
 NSaved= 4 IEnMin= 4 EnMin= -529.211805119124     IErMin= 4 ErrMin= 4.04D-04
 ErrMax= 4.04D-04  0.00D+00 EMaxC= 1.00D-01 BMatC= 4.10D-05 BMatP= 1.55D-03
 IDIUse=3 WtCom= 9.96D-01 WtEn= 4.04D-03
 Coeff-Com: -0.821D-02 0.129D+00 0.171D+00 0.707D+00
 Coeff-En:   0.000D+00 0.000D+00 0.000D+00 0.100D+01
 Coeff:     -0.818D-02 0.129D+00 0.171D+00 0.709D+00
 Gap=     0.244 Goal=   None    Shift=    0.000
 Gap=     0.110 Goal=   None    Shift=    0.000
 RMSDP=6.55D-05 MaxDP=4.17D-03 DE=-3.66D-04 OVMax= 1.23D-03

 Cycle   5  Pass 1  IDiag  1:
 RMSU=  4.37D-05    CP:  9.16D-01  1.05D+00  6.76D-01  6.66D-01
 E= -529.211811089030     Delta-E=       -0.000005969907 Rises=F Damp=F
 DIIS: error= 1.41D-04 at cycle   5 NSaved=   5.
 NSaved= 5 IEnMin= 5 EnMin= -529.211811089030     IErMin= 5 ErrMin= 1.41D-04
 ErrMax= 1.41D-04  0.00D+00 EMaxC= 1.00D-01 BMatC= 9.73D-06 BMatP= 4.10D-05
 IDIUse=3 WtCom= 9.99D-01 WtEn= 1.41D-03
 Coeff-Com: -0.380D-02 0.355D-01 0.646D-01 0.381D+00 0.522D+00
 Coeff-En:   0.000D+00 0.000D+00 0.000D+00 0.254D-01 0.975D+00
 Coeff:     -0.379D-02 0.354D-01 0.645D-01 0.381D+00 0.523D+00
 Gap=     0.244 Goal=   None    Shift=    0.000
 Gap=     0.110 Goal=   None    Shift=    0.000
 RMSDP=1.32D-05 MaxDP=6.08D-04 DE=-5.97D-06 OVMax= 1.45D-03

 Cycle   6  Pass 1  IDiag  1:
 RMSU=  1.13D-05    CP:  9.16D-01  1.06D+00  6.83D-01  6.84D-01  9.48D-01
 E= -529.211813749905     Delta-E=       -0.000002660875 Rises=F Damp=F
 DIIS: error= 5.78D-05 at cycle   6 NSaved=   6.
 NSaved= 6 IEnMin= 6 EnMin= -529.211813749905     IErMin= 6 ErrMin= 5.78D-05
 ErrMax= 5.78D-05  0.00D+00 EMaxC= 1.00D-01 BMatC= 7.99D-07 BMatP= 9.73D-06
 IDIUse=1 WtCom= 1.00D+00 WtEn= 0.00D+00
 Coeff-Com:  0.504D-03-0.120D-01-0.760D-02-0.150D-01 0.154D+00 0.880D+00
 Coeff:      0.504D-03-0.120D-01-0.760D-02-0.150D-01 0.154D+00 0.880D+00
 Gap=     0.244 Goal=   None    Shift=    0.000
 Gap=     0.110 Goal=   None    Shift=    0.000
 RMSDP=7.64D-06 MaxDP=2.40D-04 DE=-2.66D-06 OVMax= 1.56D-03

 Cycle   7  Pass 1  IDiag  1:
 RMSU=  6.74D-06    CP:  9.16D-01  1.06D+00  6.87D-01  6.84D-01  1.01D+00
                    CP:  1.15D+00
 E= -529.211814684372     Delta-E=       -0.000000934467 Rises=F Damp=F
 DIIS: error= 4.33D-05 at cycle   7 NSaved=   7.
 NSaved= 7 IEnMin= 7 EnMin= -529.211814684372     IErMin= 7 ErrMin= 4.33D-05
 ErrMax= 4.33D-05  0.00D+00 EMaxC= 1.00D-01 BMatC= 2.85D-07 BMatP= 7.99D-07
 IDIUse=1 WtCom= 1.00D+00 WtEn= 0.00D+00
 Coeff-Com:  0.840D-03-0.107D-01-0.138D-01-0.837D-01-0.255D-01 0.310D+00
 Coeff-Com:  0.823D+00
 Coeff:      0.840D-03-0.107D-01-0.138D-01-0.837D-01-0.255D-01 0.310D+00
 Coeff:      0.823D+00
 Gap=     0.244 Goal=   None    Shift=    0.000
 Gap=     0.110 Goal=   None    Shift=    0.000
 RMSDP=6.14D-06 MaxDP=2.94D-04 DE=-9.34D-07 OVMax= 1.27D-03

 Cycle   8  Pass 1  IDiag  1:
 RMSU=  3.85D-06    CP:  9.16D-01  1.06D+00  6.89D-01  6.86D-01  1.04D+00
                    CP:  1.28D+00  1.62D+00
 E= -529.211815157562     Delta-E=       -0.000000473190 Rises=F Damp=F
 DIIS: error= 3.28D-05 at cycle   8 NSaved=   8.
 NSaved= 8 IEnMin= 8 EnMin= -529.211815157562     IErMin= 8 ErrMin= 3.28D-05
 ErrMax= 3.28D-05  0.00D+00 EMaxC= 1.00D-01 BMatC= 1.80D-07 BMatP= 2.85D-07
[...]
    R9        2.44528  -0.00002   0.00000  -0.00008  -0.00008   2.44520
   R10        2.63655  -0.00002   0.00000  -0.00016  -0.00016   2.63639
   R11        2.04911  -0.00001   0.00000  -0.00003  -0.00003   2.04908
   R12        2.44363   0.00003   0.00000   0.00011   0.00011   2.44374
    A1        2.08112   0.00001   0.00000   0.00015   0.00015   2.08127
    A2        2.13493  -0.00001   0.00000  -0.00010  -0.00010   2.13483
    A3        2.06713   0.00000   0.00000  -0.00006  -0.00006   2.06708
    A4        2.06010  -0.00002   0.00000  -0.00021  -0.00021   2.05988
    A5        2.14095  -0.00002   0.00000  -0.00030  -0.00030   2.14064
    A6        2.08214   0.00004   0.00000   0.00052   0.00052   2.08266
    A7        2.12360   0.00001   0.00000   0.00004   0.00004   2.12364
    A8        2.11170   0.00003   0.00000   0.00032   0.00032   2.11202
    A9        2.04789  -0.00005   0.00000  -0.00036  -0.00036   2.04753
   A10        2.10706   0.00003   0.00000   0.00025   0.00025   2.10731
   A11        2.04180  -0.00002   0.00000  -0.00019  -0.00019   2.04160
   A12        2.13433  -0.00001   0.00000  -0.00006  -0.00006   2.13427
   A13        2.03044  -0.00005   0.00000  -0.00036  -0.00036   2.03008
   A14        2.12956   0.00001   0.00000   0.00002   0.00002   2.12959
   A15        2.12318   0.00004   0.00000   0.00034   0.00034   2.12352
   A16        2.16406   0.00002   0.00000   0.00013   0.00013   2.16419
   A17        2.04519  -0.00004   0.00000  -0.00026  -0.00026   2.04493
   A18        2.07394   0.00001   0.00000   0.00013   0.00013   2.07407
    D1       -0.00000   0.00000   0.00000   0.00000   0.00000   0.00000
    D2        3.14159   0.00000   0.00000   0.00000   0.00000   3.14159
    D3        3.14159  -0.00000   0.00000  -0.00000   0.00000   3.14159
    D4        0.00000  -0.00000   0.00000  -0.00000   0.00000   0.00000
    D5       -0.00000   0.00000   0.00000   0.00000   0.00000   0.00000
    D6       -3.14159  -0.00000   0.00000  -0.00000  -0.00000  -3.14159
    D7        3.14159   0.00000   0.00000   0.00000   0.00000   3.14159
    D8        0.00000  -0.00000   0.00000  -0.00000  -0.00000   0.00000
    D9        0.00000  -0.00000   0.00000  -0.00000  -0.00000   0.00000
   D10        3.14159   0.00000   0.00000   0.00000   0.00000   3.14159
   D11        3.14159  -0.00000   0.00000  -0.00000   0.00000   3.14159
   D12       -0.00000   0.00000   0.00000   0.00000   0.00000   0.00000
   D13       -0.00000   0.00000   0.00000   0.00000   0.00000   0.00000
   D14        3.14159   0.00000   0.00000   0.00000   0.00000   3.14159
   D15       -3.14159  -0.00000   0.00000  -0.00000  -0.00000   3.14159
   D16       -0.00000   0.00000   0.00000   0.00000   0.00000   0.00000
   D17       -0.00000   0.00000   0.00000   0.00000   0.00000   0.00000
   D18        3.14159   0.00000   0.00000   0.00000   0.00000   3.14159
   D19        3.14159  -0.00000   0.00000  -0.00000   0.00000   3.14159
   D20        0.00000  -0.00000   0.00000  -0.00000  -0.00000   0.00000
   D21        0.00000  -0.00000   0.00000  -0.00000  -0.00000   0.00000
   D22        3.14159   0.00000   0.00000   0.00000   0.00000   3.14159
   D23       -3.14159  -0.00000   0.00000  -0.00000  -0.00000   3.14159
   D24       -0.00000   0.00000   0.00000   0.00000   0.00000   0.00000
         Item               Value     Threshold  Converged?
 Maximum Force            0.000123     0.000450     YES
 RMS     Force            0.000027     0.000300     YES
 Maximum Displacement     0.000591     0.001800     YES
 RMS     Displacement     0.000209     0.001200     YES
 Predicted change in Energy=-1.159900D-07
 Optimization completed.
    -- Stationary point found.
                           ----------------------------
                           !   Optimized Parameters   !
                           ! (Angstroms and Degrees)  !
 --------------------------                            --------------------------
 ! Name  Definition              Value          Derivative Info.                !
 --------------------------------------------------------------------------------
 ! R1    R(1,2)                  1.3665         -DE/DX =    0.0001              !
 ! R2    R(1,6)                  1.4321         -DE/DX =    0.0                 !
 ! R3    R(1,7)                  1.0851         -DE/DX =    0.0                 !
 ! R4    R(2,3)                  1.4016         -DE/DX =   -0.0001              !
 ! R5    R(2,8)                  1.0844         -DE/DX =    0.0                 !
 ! R6    R(3,4)                  1.4452         -DE/DX =    0.0001              !
 ! R7    R(3,9)                  1.2873         -DE/DX =    0.0                 !
 ! R8    R(4,5)                  1.3674         -DE/DX =    0.0                 !
 ! R9    R(4,10)                 1.294          -DE/DX =    0.0                 !
 ! R10   R(5,6)                  1.3952         -DE/DX =    0.0                 !
 ! R11   R(5,12)                 1.0843         -DE/DX =    0.0                 !
 ! R12   R(6,11)                 1.2931         -DE/DX =    0.0                 !
 ! A1    A(2,1,6)              119.2394         -DE/DX =    0.0                 !
 ! A2    A(2,1,7)              122.3226         -DE/DX =    0.0                 !
 ! A3    A(6,1,7)              118.438          -DE/DX =    0.0                 !
 ! A4    A(1,2,3)              118.0348         -DE/DX =    0.0                 !
 ! A5    A(1,2,8)              122.6672         -DE/DX =    0.0                 !
 ! A6    A(3,2,8)              119.298          -DE/DX =    0.0                 !
 ! A7    A(2,3,4)              121.6731         -DE/DX =    0.0                 !
 ! A8    A(2,3,9)              120.9915         -DE/DX =    0.0                 !
 ! A9    A(4,3,9)              117.3354         -DE/DX =    0.0                 !
 ! A10   A(3,4,5)              120.7256         -DE/DX =    0.0                 !
 ! A11   A(3,4,10)             116.9863         -DE/DX =    0.0                 !
 ! A12   A(5,4,10)             122.2882         -DE/DX =    0.0                 !
 ! A13   A(4,5,6)              116.3357         -DE/DX =   -0.0001              !
 ! A14   A(4,5,12)             122.015          -DE/DX =    0.0                 !
 ! A15   A(6,5,12)             121.6493         -DE/DX =    0.0                 !
 ! A16   A(1,6,5)              123.9914         -DE/DX =    0.0                 !
 ! A17   A(1,6,11)             117.1808         -DE/DX =    0.0                 !
 ! A18   A(5,6,11)             118.8278         -DE/DX =    0.0                 !
 ! D1    D(6,1,2,3)              0.0            -DE/DX =    0.0                 !
 ! D2    D(6,1,2,8)            180.0            -DE/DX =    0.0                 !
 ! D3    D(7,1,2,3)            180.0            -DE/DX =    0.0                 !
 ! D4    D(7,1,2,8)              0.0            -DE/DX =    0.0                 !
 ! D5    D(2,1,6,5)              0.0            -DE/DX =    0.0                 !
 ! D6    D(2,1,6,11)          -180.0            -DE/DX =    0.0                 !
 ! D7    D(7,1,6,5)            180.0            -DE/DX =    0.0                 !
 ! D8    D(7,1,6,11)             0.0            -DE/DX =    0.0                 !
 ! D9    D(1,2,3,4)              0.0            -DE/DX =    0.0                 !
 ! D10   D(1,2,3,9)            180.0            -DE/DX =    0.0                 !
 ! D11   D(8,2,3,4)            180.0            -DE/DX =    0.0                 !
 ! D12   D(8,2,3,9)              0.0            -DE/DX =    0.0                 !
 ! D13   D(2,3,4,5)              0.0            -DE/DX =    0.0                 !
 ! D14   D(2,3,4,10)           180.0            -DE/DX =    0.0                 !
 ! D15   D(9,3,4,5)            180.0            -DE/DX =    0.0                 !
 ! D16   D(9,3,4,10)             0.0            -DE/DX =    0.0                 !
 ! D17   D(3,4,5,6)              0.0            -DE/DX =    0.0                 !
 ! D18   D(3,4,5,12)           180.0            -DE/DX =    0.0                 !
 ! D19   D(10,4,5,6)           180.0            -DE/DX =    0.0                 !
 ! D20   D(10,4,5,12)            0.0            -DE/DX =    0.0                 !
 ! D21   D(4,5,6,1)              0.0            -DE/DX =    0.0                 !
 ! D22   D(4,5,6,11)           180.0            -DE/DX =    0.0                 !
 ! D23   D(12,5,6,1)           180.0            -DE/DX =    0.0                 !
 ! D24   D(12,5,6,11)            0.0            -DE/DX =    0.0                 !
 --------------------------------------------------------------------------------
 GradGradGradGradGradGradGradGradGradGradGradGradGradGradGradGradGradGrad

 Leave Link  103 at Wed Jan 29 16:09:17 2025, MaxMem=   104857600 cpu:               0.0 elap:               0.0
 (Enter /sw/cluster/pub/apps//g16/l9999.exe)

 ----------------------------------------------------------------------

 Electric dipole moment (input orientation):
 (Debye = 10**-18 statcoulomb cm , SI units = C m)
                  (au)            (Debye)         (10**-30 SI)
   Tot        0.367430D+00      0.933915D+00      0.311520D+01
   x          0.339076D+00      0.861846D+00      0.287481D+01
   y          0.141536D+00      0.359748D+00      0.119999D+01
   z          0.000000D+00      0.000000D+00      0.000000D+00

 Dipole polarizability, Alpha (input orientation).
 (esu units = cm**3 , SI units = C**2 m**2 J**-1)
 Alpha(0;0):
               (au)            (10**-24 esu)      (10**-40 SI)
   iso        0.635720D+02      0.942040D+01      0.104816D+02
   aniso      0.502514D+02      0.744649D+01      0.828534D+01
   xx         0.702582D+02      0.104112D+02      0.115840D+02
   yx         0.461875D+01      0.684428D+00      0.761529D+00
   yy         0.882802D+02      0.130818D+02      0.145554D+02
   zx         0.000000D+00      0.000000D+00      0.000000D+00
   zy         0.000000D+00      0.000000D+00      0.000000D+00
   zz         0.321776D+02      0.476824D+01      0.530538D+01

 ----------------------------------------------------------------------

 Dipole orientation:
     6         -0.10469756          0.25082354          2.63089808
     6          0.81764912         -1.95883680          1.66416641
     6          0.92515858         -2.21639687         -0.96965855
     6          0.09304080         -0.22289763         -2.64057347
     6         -0.83274632          1.99500500         -1.69131843
     6         -0.91743413          2.19789132          0.93604620
     1         -0.24642164          0.59035134          4.64809788
     1          1.46151899         -3.50135168          2.84971166
     9          1.77483291         -4.25195649         -1.99554356
     9          0.26850273         -0.64325085         -5.04305824
     9         -1.77705438          4.25727859          1.93169796
     1         -1.46780408          3.51640891         -2.90823698

 Electric dipole moment (dipole orientation):
 (Debye = 10**-18 statcoulomb cm , SI units = C m)
                  (au)            (Debye)         (10**-30 SI)
   Tot        0.367430D+00      0.933915D+00      0.311520D+01
   x          0.000000D+00      0.000000D+00      0.000000D+00
   y          0.000000D+00      0.000000D+00      0.000000D+00
   z          0.367430D+00      0.933915D+00      0.311520D+01

 Dipole polarizability, Alpha (dipole orientation).
 (esu units = cm**3 , SI units = C**2 m**2 J**-1)
 Alpha(0;0):
               (au)            (10**-24 esu)      (10**-40 SI)
   iso        0.635720D+02      0.942040D+01      0.104816D+02
   aniso      0.502514D+02      0.744649D+01      0.828534D+01
   xx         0.396182D+02      0.587081D+01      0.653216D+01
   yx        -0.178253D+02     -0.264144D+01     -0.293900D+01
   yy         0.748817D+02      0.110963D+02      0.123463D+02
   zx        -0.371894D+01     -0.551090D+00     -0.613171D+00
   zy         0.890945D+01      0.132024D+01      0.146897D+01
   zz         0.762161D+02      0.112941D+02      0.125663D+02

 ----------------------------------------------------------------------
 1\1\GINC-N02\Freq\UPBE1PBE\6-311++G(d,p)\C6H3F3(1+,2)\UNKNOWN\29-Jan-2
 025\0\\#P Geom=AllCheck Guess=TCheck SCRF=Check GenChk UPBE1PBE/6-311+
 +G(d,p) Freq\\1 2 4-DFB SP\\1,2\C,1.2293726433,0.6690157405,0.00000000
 97\C,1.2453624769,-0.6973459798,0.0000000023\C,0.016048525,-1.37052315
 35,0.0000000097\C,-1.2402660095,-0.6562102197,0.0000000104\C,-1.266611
 0101,0.7109506711,0.0000000102\C,-0.0283751984,1.353878862,0.000000019
 \H,2.1394574578,1.2598746977,-0.0000000022\H,2.165034439,-1.2719466487
 ,-0.0000000112\F,-0.0353052163,-2.6568126311,-0.0000000078\F,-2.320648
 1202,-1.3683771466,-0.0000000124\F,0.0029511944,2.6466145891,-0.000000
 0227\H,-2.1969407098,1.267984704,-0.000000006\\Version=ES64L-G16RevA.0
 3\HF=-529.2125432\S2=0.764817\S2-1=0.\S2A=0.750107\RMSD=3.364e-09\RMSF
 =5.609e-05\ZeroPoint=0.0761359\Thermal=0.0831113\Dipole=0.8927167,0.45
 91433,0.\DipoleDeriv=-0.05361,0.3847426,0.,0.1240657,0.0564431,0.,0.,0
 .,-0.0026901,-0.1061875,-0.403696,0.,-0.1210831,-0.3800755,0.,0.,0.,-0
 .0667182,0.2972131,0.1201471,0.,0.1749596,1.8487427,0.,0.,0.,0.290825,
 1.1613244,0.8638822,0.,0.7229624,0.8870709,0.,0.,0.,0.2328206,-0.39496
 1,-0.4172933,0.,-0.4542287,-0.6645922,0.,0.,0.,-0.1054703,0.8022636,0.
 1119847,0.,0.1991329,1.9467087,0.,0.,0.,0.2864669,0.1578061,0.0254767,
 0.,0.0396745,0.1343189,0.,0.,0.,0.1631605,0.1709951,-0.0215374,0.,-0.0
 319139,0.1326886,0.,0.,0.,0.1737074,-0.1225784,-0.0331467,0.,-0.019055
 1,-1.2809362,0.,0.,0.,-0.0473823,-0.9240319,-0.5747025,0.,-0.4981638,-
 0.4714229,0.,0.,0.,-0.0580747,-0.1685447,-0.0105937,0.,-0.089236,-1.35
 98673,0.,0.,0.,-0.0655484,0.1803112,-0.0452635,0.,-0.0471147,0.1509212
 ,0.,0.,0.,0.1989036\Polar=70.2582428,4.6187518,88.2801592,0.,0.,32.177
 6452\Quadrupole=4.5899644,0.3457412,-4.9357057,-1.5272893,0.,0.\PG=C01
  [X(C6H3F3)]\NImag=0\\0.67067840,0.06145132,0.77707339,0.,0.,0.1154951
 0,-0.11576751,0.03138707,0.,0.69301757,-0.00577469,-0.42138219,0.,-0.0
 8755643,0.72794933,0.,0.,-0.04353880,0.,0.,0.10481920,0.02184397,-0.06
 701747,0.,-0.26540876,0.00968923,0.,0.60068555,-0.04134064,-0.03126406
 ,0.,-0.08728268,-0.12913869,0.,0.02589804,0.76047531,0.,0.,-0.00764965
 ,0.,0.,-0.05252226,0.,0.,0.13509942,-0.01971943,0.02531207,0.,-0.04096
 608,-0.01994573,0.,-0.20664666,0.09982275,0.,0.68580751,0.02639350,-0.
 03044549,0.,0.00034011,0.03437502,0.,0.05891276,-0.12841200,0.,0.05406
 883,0.78734634,0.,0.,0.00800177,0.,0.,0.00027129,0.,0.,-0.05979505,0.,
 0.,0.13405476,-0.03699699,0.00507801,0.,0.00256976,0.00060266,0.,-0.00
 459464,0.02622341,0.,-0.11085916,0.06675818,0.,0.73413226,-0.00688309,
 0.03661526,0.,0.00363889,0.00376981,0.,-0.00557124,-0.01966480,0.,0.02
 626933,-0.38949927,0.,-0.06586711,0.73244711,0.,0.,0.00252744,0.,0.,0.
 01008576,0.,0.,-0.00284398,0.,0.,-0.04840686,0.,0.,0.09801661,-0.25887
 511,0.04279993,0.,-0.01534989,-0.00300608,0.,0.02527083,0.01582676,0.,
 0.01181715,-0.09113960,0.,-0.28787108,-0.00047494,0.,0.62248854,0.0750
 3281,-0.13350320,0.,0.03201227,-0.02429517,0.,0.01183690,-0.01661064,0
 .,-0.04785798,-0.03521764,0.,-0.09194339,-0.12903670,0.,0.02098183,0.7
 3367583,0.,0.,-0.06117028,0.,0.,-0.00531731,0.,0.,0.00147591,0.,0.,-0.
 01399578,0.,0.,-0.05364677,0.,-0.00000001,0.15366709,-0.26718356,-0.13
 389435,0.,0.00924710,0.00480138,0.,-0.00089991,0.00091723,0.,0.0000207
 4,0.00112576,0.,-0.00299641,0.00246561,0.,-0.01719816,-0.01565469,0.,0
 .27552273,-0.13463596,-0.14355443,0.,-0.02441523,-0.00876175,0.,0.0005
 1969,-0.00480960,0.,0.00011266,-0.00096362,0.,0.00299147,-0.00258573,0
 .,0.01689444,0.01273449,0.,0.14099347,0.14581681,0.,0.,-0.03716860,0.,
 0.,0.00728217,0.,0.,0.01007813,0.,0.,-0.00235974,0.,0.,0.00280943,0.,0
 .,0.00373067,0.,0.,0.02352848,0.00808698,-0.00259680,0.,-0.27317996,0.
 13046404,0.,-0.01765292,0.01526134,0.,-0.00147442,-0.00414729,0.,0.001
 03608,0.00096117,0.,-0.00084460,-0.00154066,0.,0.00059924,0.00002424,0
 .,0.28116098,0.02584831,-0.00998405,0.,0.13237409,-0.13781327,0.,-0.01
 662374,0.01308956,0.,-0.00191184,-0.00278260,0.,0.00016789,0.00028044,
 0.,-0.00225524,-0.00432468,0.,-0.00006187,0.00113213,0.,-0.13925026,0.
 14026263,0.,0.,0.00409204,0.,0.,-0.03551822,0.,0.,0.00274552,0.,0.,0.0
 0468937,0.,0.,-0.00237542,0.,0.,0.01018459,0.,0.,-0.00523441,0.,0.,0.0
 2506274,-0.00725445,0.00127694,0.,0.00595249,-0.05059844,0.,-0.0772708
 1,-0.01423217,0.,0.00247404,0.03659175,0.,-0.00507526,0.00440228,0.,-0
 .00587711,-0.00118002,0.,0.00076354,-0.00145326,0.,0.00244599,0.001873
 34,0.,0.07486574,0.00034745,0.00517599,0.,-0.01379962,-0.05251826,0.,-
 0.00065995,-0.44899972,0.,-0.00762619,-0.05605862,0.,0.00707741,0.0062
 8062,0.,-0.01136925,0.00713156,0.,0.00102703,-0.00075129,0.,0.00062352
 ,0.00072941,0.,0.01802507,0.53556923,0.,0.,0.00626385,0.,0.,0.01018472
 ,0.,0.,-0.04063684,0.,0.,0.00885909,0.,0.,0.00350351,0.,0.,-0.00096072
 ,0.,0.,-0.00142744,0.,0.,-0.00319483,0.,0.,0.01998574,-0.00049565,-0.0
 0354896,0.,0.00277917,0.01652193,0.,-0.06942152,-0.03796186,0.,-0.3222
 5632,-0.15294989,0.,-0.01771118,-0.03637272,0.,0.02101000,0.01138311,0
 .,0.00019170,-0.00001832,0.,-0.00078558,-0.00172965,0.,0.00722580,0.00
 639336,0.,0.38189500,-0.00397045,-0.00054056,0.,0.00675873,0.00309665,
 0.,-0.00685265,0.00151246,0.,-0.15968270,-0.18105172,0.,-0.06415674,-0
 .04296149,0.,0.02386972,0.00113138,0.,-0.00007815,0.00020694,0.,0.0007
 9011,0.00043409,0.,0.00347651,0.01209771,0.,0.20405953,0.20823233,0.,0
 .,-0.00209859,0.,0.,0.00276217,0.,0.,0.00724445,0.,0.,-0.04407695,0.,0
 .,0.01097703,0.,0.,0.01015171,0.,0.,0.00019310,0.,0.,0.00040058,0.,0.,
 -0.00215030,0.,0.,0.02333877,0.00775880,0.04345030,0.,-0.00404501,0.00
 427919,0.,-0.00448728,-0.00186013,0.,-0.00660037,0.00562072,0.,0.00371
 751,-0.05270783,0.,-0.07872721,-0.00754505,0.,0.00246172,-0.00165387,0
 .,0.00062982,0.00147337,0.,0.00097442,0.00077112,0.,-0.00158059,-0.004
 20314,0.,0.07744525,0.00712795,-0.04588657,0.,0.00645361,0.00478310,0.
 ,-0.00730736,0.00796779,0.,0.00385797,0.01258580,0.,-0.01802687,-0.059
 83248,0.,0.00268613,-0.42585525,0.,-0.00093767,0.00084976,0.,-0.000671
 47,-0.00104908,0.,0.00030359,-0.00765136,0.,-0.00534861,-0.00537450,0.
 ,0.01073361,0.51893777,0.,0.,0.01056626,0.,0.,0.00372995,0.,0.,-0.0010
 6669,0.,0.,0.00741258,0.,0.,0.01198507,0.,0.00000001,-0.04662503,0.,0.
 ,-0.00206876,0.,0.,-0.00084901,0.,0.,0.00019944,0.,0.,-0.00157909,0.,-
 0.00000001,0.02191968,-0.00207543,-0.00369807,0.,0.00115112,0.00052293
 ,0.,-0.00141786,-0.00127205,0.,0.00840300,-0.00157483,0.,-0.27535090,0
 .13013964,0.,-0.01584337,0.01447487,0.,-0.00052872,0.00064065,0.,-0.00
 002161,0.00009559,0.,0.00077561,-0.00080994,0.,-0.00085083,-0.00001077
 ,0.,0.00245294,0.00112911,0.,0.28330605,-0.00359650,-0.00230410,0.,0.0
 0008919,-0.00006459,0.,-0.00282422,-0.00414562,0.,0.02758082,-0.009876
 20,0.,0.13109507,-0.13581278,0.,-0.01481372,0.01417001,0.,-0.00070374,
 0.00068628,0.,0.00008206,0.00002543,0.,0.00151440,-0.00100528,0.,-0.00
 042792,0.00321671,0.,0.00164170,0.00052501,0.,-0.13963713,0.13458512,0
 .,0.,0.00467946,0.,0.,-0.00223868,0.,0.,0.00787104,0.,0.,0.00534551,0.
 ,0.,-0.03263182,0.,0.,0.00250591,0.,0.,0.00063696,0.,0.,-0.00000295,0.
 ,0.,-0.00062623,0.,0.,-0.00516287,0.,0.,-0.00362441,0.,0.,0.02324807\\
 -0.00000891,-0.00009839,0.,0.00010412,0.00018123,0.,-0.00017849,-0.000
 06588,0.,0.00002857,0.00001413,0.,0.00003954,-0.00008522,0.,0.00003809
 ,0.00008933,0.,0.00000131,0.00000597,0.,-0.00001248,-0.00002987,0.,0.0
 0003138,0.00001362,0.,-0.00002279,-0.00001019,0.,-0.00001994,-0.000029
 38,0.,-0.00000039,0.00001463,0.\\\@


 REALITY IS FOR PEOPLE WHO CAN'T FACE SCIENCE FICTION.
 Job cpu time:       0 days  0 hours  7 minutes 40.6 seconds.
 Elapsed time:       0 days  0 hours  7 minutes 41.3 seconds.
 File lengths (MBytes):  RWF=    132 Int=      0 D2E=      0 Chk=      6 Scr=      1
 Normal termination of Gaussian 16 at Wed Jan 29 16:09:18 2025.
