 Entering Gaussian System, Link 0=g16
 Initial command:
 /sw/cluster/pub/apps//g16/l1.exe "/data/natrosa/28481/Gau-93616.inp" -scrdir="/data/natrosa/28481/"
 Entering Link 1 = /sw/cluster/pub/apps//g16/l1.exe PID=     93617.
  
 Copyright (c) 1988,1990,1992,1993,1995,1998,2003,2009,2016,
            Gaussian, Inc.  All Rights Reserved.
  
 This is part of the Gaussian(R) 16 program.  It is based on
 the Gaussian(R) 09 system (copyright 2009, Gaussian, Inc.),
 the Gaussian(R) 03 system (copyright 2003, Gaussian, Inc.),
 the Gaussian(R) 98 system (copyright 1998, Gaussian, Inc.),
 the Gaussian(R) 94 system (copyright 1995, Gaussian, Inc.),
 the Gaussian 92(TM) system (copyright 1992, Gaussian, Inc.),
 the Gaussian 90(TM) system (copyright 1990, Gaussian, Inc.),
 the Gaussian 88(TM) system (copyright 1988, Gaussian, Inc.),
 the Gaussian 86(TM) system (copyright 1986, Carnegie Mellon
 University), and the Gaussian 82(TM) system (copyright 1983,
 Carnegie Mellon University). Gaussian is a federally registered
 trademark of Gaussian, Inc.
  
 This software contains proprietary and confidential information,
 including trade secrets, belonging to Gaussian, Inc.
  
 This software is provided under written license and may be
 used, copied, transmitted, or stored only in accord with that
 written license.
  
 The following legend is applicable only to US Government
 contracts under FAR:
  
                    RESTRICTED RIGHTS LEGEND
  
 Use, reproduction and disclosure by the US Government is
 subject to restrictions as set forth in subparagraphs (a)
 and (c) of the Commercial Computer Software - Restricted
 Rights clause in FAR 52.227-19.
  
 Gaussian, Inc.
 340 Quinnipiac St., Bldg. 40, Wallingford CT 06492
  
  
 ---------------------------------------------------------------
 Warning -- This program may not be used in any manner that
 competes with the business of Gaussian, Inc. or will provide
 assistance to any competitor of Gaussian, Inc.  The licensee
 of this program is prohibited from giving any competitor of
 Gaussian, Inc. access to this program.  By using this program,
 the user acknowledges that Gaussian, Inc. is engaged in the
 business of creating and licensing software in the field of
 computational chemistry and represents and warrants to the
 licensee that it is not a competitor of Gaussian, Inc. and that
 it will not use this program in any manner prohibited above.
 ---------------------------------------------------------------
  

 Cite this work as:
 Gaussian 16, Revision A.03,
 M. J. Frisch, G. W. Trucks, H. B. Schlegel, G. E. Scuseria, 
 M. A. Robb, J. R. Cheeseman, G. Scalmani, V. Barone, 
 G. A. Petersson, H. Nakatsuji, X. Li, M. Caricato, A. V. Marenich, 
 J. Bloino, B. G. Janesko, R. Gomperts, B. Mennucci, H. P. Hratchian, 
 J. V. Ortiz, A. F. Izmaylov, J. L. Sonnenberg, D. Williams-Young, 
 F. Ding, F. Lipparini, F. Egidi, J. Goings, B. Peng, A. Petrone, 
 T. Henderson, D. Ranasinghe, V. G. Zakrzewski, J. Gao, N. Rega, 
 G. Zheng, W. Liang, M. Hada, M. Ehara, K. Toyota, R. Fukuda, 
 J. Hasegawa, M. Ishida, T. Nakajima, Y. Honda, O. Kitao, H. Nakai, 
 T. Vreven, K. Throssell, J. A. Montgomery, Jr., J. E. Peralta, 
 F. Ogliaro, M. J. Bearpark, J. J. Heyd, E. N. Brothers, K. N. Kudin, 
 V. N. Staroverov, T. A. Keith, R. Kobayashi, J. Normand, 
 K. Raghavachari, A. P. Rendell, J. C. Burant, S. S. Iyengar, 
 J. Tomasi, M. Cossi, J. M. Millam, M. Klene, C. Adamo, R. Cammi, 
 J. W. Ochterski, R. L. Martin, K. Morokuma, O. Farkas, 
 J. B. Foresman, and D. J. Fox, Gaussian, Inc., Wallingford CT, 2016.
 
 ******************************************
 Gaussian 16:  ES64L-G16RevA.03 25-Dec-2016
                30-Jan-2025 
 ******************************************
 %chk=HFB-CAT.chk
 --------------------------------------------------------
 #p opt freq PBE1PBE/6-311++G(d,p) density=current nosymm
 --------------------------------------------------------
 1/18=20,19=15,26=3,38=1/1,3;
 2/9=110,12=2,15=1,17=6,18=5,40=1/2;
 3/5=4,6=6,7=1111,11=2,25=1,30=1,71=1,74=-13/1,2,3;
 4//1;
 5/5=2,38=5/2;
 6/7=2,8=2,9=2,10=2,22=-1,28=1/1;
 7/30=1/1,2,3,16;
 1/18=20,19=15,26=3/3(2);
 2/9=110,15=1/2;
 99//99;
 2/9=110,15=1/2;
 3/5=4,6=6,7=1111,11=2,25=1,30=1,71=1,74=-13/1,2,3;
 4/5=5,16=3,69=1/1;
 5/5=2,38=5/2;
 7/30=1/1,2,3,16;
 1/18=20,19=15,26=3/3(-5);
 2/9=110,15=1/2;
 6/7=2,8=2,9=2,10=2,19=2,22=-1,28=1/1;
 99/9=1/99;
 Leave Link    1 at Thu Jan 30 14:29:19 2025, MaxMem=           0 cpu:               0.0 elap:               0.0
 (Enter /sw/cluster/pub/apps//g16/l101.exe)
 ------
 HFB SP
 ------
 Symbolic Z-matrix:
 Charge =  1 Multiplicity = 2
 C                     1.23167   0.7111    0. 
 C                     1.23167  -0.7111    0. 
 C                     0.       -1.42221   0. 
 C                    -1.23167  -0.7111    0. 
 C                    -1.23167   0.7111    0. 
 C                     0.        1.42221   0. 
 F                     2.40708   1.38973   0. 
 F                     2.40708  -1.38973   0. 
 F                     0.       -2.77946   0. 
 F                    -2.40708  -1.38973   0. 
 F                    -2.40708   1.38973   0. 
 F                     0.        2.77946   0. 
 
 ITRead=  0  0  0  0  0  0  0  0  0  0  0  0
 MicOpt= -1 -1 -1 -1 -1 -1 -1 -1 -1 -1 -1 -1
 NAtoms=     12 NQM=       12 NQMF=       0 NMMI=      0 NMMIF=      0
                NMic=       0 NMicF=      0.
                    Isotopes and Nuclear Properties:
 (Nuclear quadrupole moments (NQMom) in fm**2, nuclear magnetic moments (NMagM)
  in nuclear magnetons)

  Atom         1           2           3           4           5           6           7           8           9          10
 IAtWgt=          12          12          12          12          12          12          19          19          19          19
 AtmWgt=  12.0000000  12.0000000  12.0000000  12.0000000  12.0000000  12.0000000  18.9984032  18.9984032  18.9984032  18.9984032
 NucSpn=           0           0           0           0           0           0           1           1           1           1
 AtZEff=  -0.0000000  -0.0000000  -0.0000000  -0.0000000  -0.0000000  -0.0000000  -0.0000000  -0.0000000  -0.0000000  -0.0000000
 NQMom=    0.0000000   0.0000000   0.0000000   0.0000000   0.0000000   0.0000000   0.0000000   0.0000000   0.0000000   0.0000000
 NMagM=    0.0000000   0.0000000   0.0000000   0.0000000   0.0000000   0.0000000   2.6288670   2.6288670   2.6288670   2.6288670
 AtZNuc=   6.0000000   6.0000000   6.0000000   6.0000000   6.0000000   6.0000000   9.0000000   9.0000000   9.0000000   9.0000000

  Atom        11          12
 IAtWgt=          19          19
 AtmWgt=  18.9984032  18.9984032
 NucSpn=           1           1
 AtZEff=  -0.0000000  -0.0000000
 NQMom=    0.0000000   0.0000000
 NMagM=    2.6288670   2.6288670
 AtZNuc=   9.0000000   9.0000000
 Leave Link  101 at Thu Jan 30 14:29:19 2025, MaxMem=   104857600 cpu:               0.0 elap:               0.0
 (Enter /sw/cluster/pub/apps//g16/l103.exe)

 GradGradGradGradGradGradGradGradGradGradGradGradGradGradGradGradGradGrad
 Berny optimization.
 Initialization pass.
                           ----------------------------
                           !    Initial Parameters    !
                           ! (Angstroms and Degrees)  !
 --------------------------                            --------------------------
 ! Name  Definition              Value          Derivative Info.                !
 --------------------------------------------------------------------------------
 ! R1    R(1,2)                  1.4222         estimate D2E/DX2                !
 ! R2    R(1,6)                  1.4222         estimate D2E/DX2                !
 ! R3    R(1,7)                  1.3572         estimate D2E/DX2                !
 ! R4    R(2,3)                  1.4222         estimate D2E/DX2                !
 ! R5    R(2,8)                  1.3572         estimate D2E/DX2                !
 ! R6    R(3,4)                  1.4222         estimate D2E/DX2                !
 ! R7    R(3,9)                  1.3572         estimate D2E/DX2                !
 ! R8    R(4,5)                  1.4222         estimate D2E/DX2                !
 ! R9    R(4,10)                 1.3572         estimate D2E/DX2                !
 ! R10   R(5,6)                  1.4222         estimate D2E/DX2                !
 ! R11   R(5,11)                 1.3572         estimate D2E/DX2                !
 ! R12   R(6,12)                 1.3572         estimate D2E/DX2                !
 ! A1    A(2,1,6)              120.0            estimate D2E/DX2                !
 ! A2    A(2,1,7)              120.0            estimate D2E/DX2                !
 ! A3    A(6,1,7)              120.0            estimate D2E/DX2                !
 ! A4    A(1,2,3)              120.0            estimate D2E/DX2                !
 ! A5    A(1,2,8)              120.0            estimate D2E/DX2                !
 ! A6    A(3,2,8)              120.0            estimate D2E/DX2                !
 ! A7    A(2,3,4)              120.0            estimate D2E/DX2                !
 ! A8    A(2,3,9)              120.0            estimate D2E/DX2                !
 ! A9    A(4,3,9)              120.0            estimate D2E/DX2                !
 ! A10   A(3,4,5)              120.0            estimate D2E/DX2                !
 ! A11   A(3,4,10)             120.0            estimate D2E/DX2                !
 ! A12   A(5,4,10)             120.0            estimate D2E/DX2                !
 ! A13   A(4,5,6)              120.0            estimate D2E/DX2                !
 ! A14   A(4,5,11)             120.0            estimate D2E/DX2                !
 ! A15   A(6,5,11)             120.0            estimate D2E/DX2                !
 ! A16   A(1,6,5)              120.0            estimate D2E/DX2                !
 ! A17   A(1,6,12)             120.0            estimate D2E/DX2                !
 ! A18   A(5,6,12)             120.0            estimate D2E/DX2                !
 ! D1    D(6,1,2,3)              0.0            estimate D2E/DX2                !
 ! D2    D(6,1,2,8)            180.0            estimate D2E/DX2                !
 ! D3    D(7,1,2,3)            180.0            estimate D2E/DX2                !
 ! D4    D(7,1,2,8)              0.0            estimate D2E/DX2                !
 ! D5    D(2,1,6,5)              0.0            estimate D2E/DX2                !
 ! D6    D(2,1,6,12)           180.0            estimate D2E/DX2                !
 ! D7    D(7,1,6,5)            180.0            estimate D2E/DX2                !
 ! D8    D(7,1,6,12)             0.0            estimate D2E/DX2                !
 ! D9    D(1,2,3,4)              0.0            estimate D2E/DX2                !
 ! D10   D(1,2,3,9)            180.0            estimate D2E/DX2                !
 ! D11   D(8,2,3,4)            180.0            estimate D2E/DX2                !
 ! D12   D(8,2,3,9)              0.0            estimate D2E/DX2                !
 ! D13   D(2,3,4,5)              0.0            estimate D2E/DX2                !
 ! D14   D(2,3,4,10)           180.0            estimate D2E/DX2                !
 ! D15   D(9,3,4,5)            180.0            estimate D2E/DX2                !
 ! D16   D(9,3,4,10)             0.0            estimate D2E/DX2                !
 ! D17   D(3,4,5,6)              0.0            estimate D2E/DX2                !
 ! D18   D(3,4,5,11)           180.0            estimate D2E/DX2                !
 ! D19   D(10,4,5,6)           180.0            estimate D2E/DX2                !
 ! D20   D(10,4,5,11)            0.0            estimate D2E/DX2                !
 ! D21   D(4,5,6,1)              0.0            estimate D2E/DX2                !
 ! D22   D(4,5,6,12)           180.0            estimate D2E/DX2                !
 ! D23   D(11,5,6,1)           180.0            estimate D2E/DX2                !
 ! D24   D(11,5,6,12)            0.0            estimate D2E/DX2                !
 --------------------------------------------------------------------------------
 Trust Radius=3.00D-01 FncErr=1.00D-07 GrdErr=1.00D-06 EigMax=2.50D+02 EigMin=1.00D-04
 Number of steps in this run=     64 maximum allowed number of steps=    100.
 GradGradGradGradGradGradGradGradGradGradGradGradGradGradGradGradGradGrad

 Leave Link  103 at Thu Jan 30 14:29:19 2025, MaxMem=   104857600 cpu:               0.0 elap:               0.0
 (Enter /sw/cluster/pub/apps//g16/l202.exe)
                          Input orientation:                          
 ---------------------------------------------------------------------
 Center     Atomic      Atomic             Coordinates (Angstroms)
 Number     Number       Type             X           Y           Z
 ---------------------------------------------------------------------
      1          6           0        1.231668    0.711104    0.000000
      2          6           0        1.231668   -0.711104    0.000000
      3          6           0        0.000000   -1.422208    0.000000
      4          6           0       -1.231668   -0.711104    0.000000
      5          6           0       -1.231668    0.711104    0.000000
      6          6           0        0.000000    1.422208    0.000000
      7          9           0        2.407080    1.389728    0.000000
      8          9           0        2.407080   -1.389728    0.000000
      9          9           0        0.000000   -2.779456    0.000000
     10          9           0       -2.407080   -1.389728    0.000000
     11          9           0       -2.407080    1.389728    0.000000
     12          9           0        0.000000    2.779456    0.000000
 ---------------------------------------------------------------------
                    Distance matrix (angstroms):
                    1          2          3          4          5
     1  C    0.000000
     2  C    1.422208   0.000000
     3  C    2.463336   1.422208   0.000000
     4  C    2.844416   2.463336   1.422208   0.000000
     5  C    2.463336   2.844416   2.463336   1.422208   0.000000
     6  C    1.422208   2.463336   2.844416   2.463336   1.422208
     7  F    1.357248   2.407299   3.701489   4.201664   3.701489
     8  F    2.407299   1.357248   2.407299   3.701489   4.201664
     9  F    3.701489   2.407299   1.357249   2.407299   3.701489
    10  F    4.201664   3.701489   2.407299   1.357248   2.407299
    11  F    3.701489   4.201664   3.701489   2.407299   1.357248
    12  F    2.407299   3.701489   4.201664   3.701489   2.407299
                    6          7          8          9         10
     6  C    0.000000
     7  F    2.407299   0.000000
     8  F    3.701489   2.779456   0.000000
     9  F    4.201664   4.814160   2.779456   0.000000
    10  F    3.701489   5.558913   4.814160   2.779456   0.000000
    11  F    2.407299   4.814160   5.558913   4.814160   2.779456
    12  F    1.357249   2.779456   4.814160   5.558913   4.814160
                   11         12
    11  F    0.000000
    12  F    2.779456   0.000000
 Symmetry turned off by external request.
 Stoichiometry    C6F6(1+,2)
 Framework group  D6H[3C2'(FC.CF)]
 Deg. of freedom     2
 Full point group                 D6H     NOp  24
 Rotational constants (GHZ):           0.9849026           0.9849026           0.4924513
 Leave Link  202 at Thu Jan 30 14:29:19 2025, MaxMem=   104857600 cpu:               0.0 elap:               0.0
 (Enter /sw/cluster/pub/apps//g16/l301.exe)
 Standard basis: 6-311++G(d,p) (5D, 7F)
 Ernie: Thresh=  0.10000D-02 Tol=  0.10000D-05 Strict=F.
   264 basis functions,   432 primitive gaussians,   276 cartesian basis functions
    45 alpha electrons       44 beta electrons
       nuclear repulsion energy       718.1613876486 Hartrees.
 IExCor= 1009 DFT=T Ex+Corr=PBE1PBE ExCW=0 ScaHFX=  0.250000
 ScaDFX=  0.750000  0.750000  1.000000  1.000000 ScalE2=  1.000000  1.000000
 IRadAn=      5 IRanWt=     -1 IRanGd=            0 ICorTp=0 IEmpDi=  4
 NAtoms=   12 NActive=   12 NUniq=   12 SFac= 1.00D+00 NAtFMM=   60 NAOKFM=F Big=F
 Integral buffers will be    131072 words long.
 Raffenetti 2 integral format.
 Two-electron integral symmetry is turned off.
 Leave Link  301 at Thu Jan 30 14:29:19 2025, MaxMem=   104857600 cpu:               0.0 elap:               0.0
 (Enter /sw/cluster/pub/apps//g16/l302.exe)
 NPDir=0 NMtPBC=     1 NCelOv=     1 NCel=       1 NClECP=     1 NCelD=      1
         NCelK=      1 NCelE2=     1 NClLst=     1 CellRange=     0.0.
 One-electron integrals computed using PRISM.
 NBasis=   264 RedAO= T EigKep=  1.76D-06  NBF=   264
 NBsUse=   264 1.00D-06 EigRej= -1.00D+00 NBFU=   264
 Precomputing XC quadrature grid using
 IXCGrd= 4 IRadAn=           5 IRanWt=          -1 IRanGd=           0 AccXCQ= 0.00D+00.
 Generated NRdTot=       0 NPtTot=           0 NUsed=           0 NTot=          32
 NSgBfM=   275   275   275   275   275 MxSgAt=    12 MxSgA2=    12.
 Leave Link  302 at Thu Jan 30 14:29:19 2025, MaxMem=   104857600 cpu:               0.1 elap:               0.1
 (Enter /sw/cluster/pub/apps//g16/l303.exe)
 DipDrv:  MaxL=1.
 Leave Link  303 at Thu Jan 30 14:29:19 2025, MaxMem=   104857600 cpu:               0.0 elap:               0.0
 (Enter /sw/cluster/pub/apps//g16/l401.exe)
 ExpMin= 4.38D-02 ExpMax= 1.14D+04 ExpMxC= 1.72D+03 IAcc=3 IRadAn=         5 AccDes= 0.00D+00
 Harris functional with IExCor= 1009 and IRadAn=       5 diagonalized for initial guess.
 HarFok:  IExCor= 1009 AccDes= 0.00D+00 IRadAn=         5 IDoV= 1 UseB2=F ITyADJ=14
 ICtDFT=  3500011 ScaDFX=  1.000000  1.000000  1.000000  1.000000
 FoFCou: FMM=F IPFlag=           0 FMFlag=      100000 FMFlg1=           0
         NFxFlg=           0 DoJE=T BraDBF=F KetDBF=T FulRan=T
         wScrn=  0.000000 ICntrl=       500 IOpCl=  0 I1Cent=   200000004 NGrid=           0
         NMat0=    1 NMatS0=      1 NMatT0=    0 NMatD0=    1 NMtDS0=    0 NMtDT0=    0
 Symmetry not used in FoFCou.
 Harris En= -826.750933559361    
 JPrj=0 DoOrth=F DoCkMO=F.
 Initial guess <Sx>= 0.0000 <Sy>= 0.0000 <Sz>= 0.5000 <S**2>= 0.7500 S= 0.5000
 Leave Link  401 at Thu Jan 30 14:29:21 2025, MaxMem=   104857600 cpu:               1.4 elap:               1.4
 (Enter /sw/cluster/pub/apps//g16/l502.exe)
 Two-electron integral symmetry not used.
 UHF open shell SCF:
 Using DIIS extrapolation, IDIIS=  1040.
 NGot=   104857600 LenX=   104701692 LenY=   104625075
 Requested convergence on RMS density matrix=1.00D-08 within 128 cycles.
 Requested convergence on MAX density matrix=1.00D-06.
 Requested convergence on             energy=1.00D-06.
 No special actions if energy rises.
 Fock matrices will be formed incrementally for  20 cycles.

 Cycle   1  Pass 1  IDiag  1:
 FoFJK:  IHMeth= 1 ICntrl=       0 DoSepK=F KAlg= 0 I1Cent=           0 FoldK=F
 IRaf= 900000000 NMat=       1 IRICut=       1 DoRegI=T DoRafI=F ISym2E= 0 IDoP0=0 IntGTp=1.
 FoFCou: FMM=F IPFlag=           0 FMFlag=      100000 FMFlg1=           0
         NFxFlg=           0 DoJE=F BraDBF=F KetDBF=F FulRan=T
         wScrn=  0.000000 ICntrl=         0 IOpCl=  1 I1Cent=           0 NGrid=           0
         NMat0=    1 NMatS0=      1 NMatT0=    0 NMatD0=    1 NMtDS0=    0 NMtDT0=    0
 Symmetry not used in FoFCou.
 E= -826.592688282432    
 DIIS: error= 2.25D-02 at cycle   1 NSaved=   1.
 NSaved= 1 IEnMin= 1 EnMin= -826.592688282432     IErMin= 1 ErrMin= 2.25D-02
 ErrMax= 2.25D-02  0.00D+00 EMaxC= 1.00D-01 BMatC= 4.26D-01 BMatP= 4.26D-01
 IDIUse=3 WtCom= 7.75D-01 WtEn= 2.25D-01
 Coeff-Com:  0.100D+01
 Coeff-En:   0.100D+01
 Coeff:      0.100D+01
 Gap=     0.296 Goal=   None    Shift=    0.000
 Gap=     0.034 Goal=   None    Shift=    0.000
 GapD=    0.034 DampG=0.250 DampE=0.500 DampFc=0.2500 IDamp=-1.
 Damping current iteration by 2.50D-01
 RMSDP=3.50D-02 MaxDP=1.51D+00              OVMax= 1.03D-01

 Cycle   2  Pass 1  IDiag  1:
 RMSU=  5.45D-03    CP:  1.13D+00
 E= -826.611351059781     Delta-E=       -0.018662777349 Rises=F Damp=T
 DIIS: error= 1.25D-02 at cycle   2 NSaved=   2.
 NSaved= 2 IEnMin= 2 EnMin= -826.611351059781     IErMin= 2 ErrMin= 1.25D-02
 ErrMax= 1.25D-02  0.00D+00 EMaxC= 1.00D-01 BMatC= 1.53D-01 BMatP= 4.26D-01
 IDIUse=3 WtCom= 8.75D-01 WtEn= 1.25D-01
 Coeff-Com: -0.897D+00 0.190D+01
 Coeff-En:   0.000D+00 0.100D+01
 Coeff:     -0.785D+00 0.178D+01
 Gap=     0.232 Goal=   None    Shift=    0.000
 Gap=     0.061 Goal=   None    Shift=    0.000
 RMSDP=1.27D-02 MaxDP=5.46D-01 DE=-1.87D-02 OVMax= 1.19D-01

 Cycle   3  Pass 1  IDiag  1:
 RMSU=  1.57D-03    CP:  1.31D+00  2.51D+00
 E= -826.642672258674     Delta-E=       -0.031321198893 Rises=F Damp=F
 DIIS: error= 1.09D-02 at cycle   3 NSaved=   3.
 NSaved= 3 IEnMin= 3 EnMin= -826.642672258674     IErMin= 3 ErrMin= 1.09D-02
 ErrMax= 1.09D-02  0.00D+00 EMaxC= 1.00D-01 BMatC= 6.61D-02 BMatP= 1.53D-01
 IDIUse=3 WtCom= 8.91D-01 WtEn= 1.09D-01
 Coeff-Com: -0.706D+00 0.109D+01 0.613D+00
 Coeff-En:   0.000D+00 0.000D+00 0.100D+01
 Coeff:     -0.629D+00 0.974D+00 0.655D+00
 Gap=     0.221 Goal=   None    Shift=    0.000
 Gap=     0.061 Goal=   None    Shift=    0.000
 RMSDP=1.20D-03 MaxDP=5.29D-02 DE=-3.13D-02 OVMax= 3.18D-02

 Cycle   4  Pass 1  IDiag  1:
 RMSU=  4.82D-04    CP:  1.29D+00  2.44D+00  8.72D-01
 E= -826.652487571613     Delta-E=       -0.009815312940 Rises=F Damp=F
 DIIS: error= 3.55D-03 at cycle   4 NSaved=   4.
 NSaved= 4 IEnMin= 4 EnMin= -826.652487571613     IErMin= 4 ErrMin= 3.55D-03
 ErrMax= 3.55D-03  0.00D+00 EMaxC= 1.00D-01 BMatC= 5.30D-03 BMatP= 6.61D-02
 IDIUse=3 WtCom= 9.64D-01 WtEn= 3.55D-02
 Coeff-Com: -0.221D+00 0.322D+00 0.311D+00 0.588D+00
 Coeff-En:   0.000D+00 0.000D+00 0.214D-01 0.979D+00
 Coeff:     -0.213D+00 0.311D+00 0.301D+00 0.602D+00
 Gap=     0.216 Goal=   None    Shift=    0.000
 Gap=     0.058 Goal=   None    Shift=    0.000
 RMSDP=2.63D-04 MaxDP=7.24D-03 DE=-9.82D-03 OVMax= 1.28D-02

 Cycle   5  Pass 1  IDiag  1:
 RMSU=  1.97D-04    CP:  1.29D+00  2.43D+00  9.04D-01  7.99D-01
 E= -826.653302825594     Delta-E=       -0.000815253981 Rises=F Damp=F
 DIIS: error= 1.59D-03 at cycle   5 NSaved=   5.
 NSaved= 5 IEnMin= 5 EnMin= -826.653302825594     IErMin= 5 ErrMin= 1.59D-03
 ErrMax= 1.59D-03  0.00D+00 EMaxC= 1.00D-01 BMatC= 7.68D-04 BMatP= 5.30D-03
 IDIUse=3 WtCom= 9.84D-01 WtEn= 1.59D-02
 Coeff-Com: -0.461D-01 0.572D-01 0.916D-01 0.346D+00 0.551D+00
 Coeff-En:   0.000D+00 0.000D+00 0.000D+00 0.798D-01 0.920D+00
 Coeff:     -0.454D-01 0.563D-01 0.902D-01 0.342D+00 0.557D+00
 Gap=     0.217 Goal=   None    Shift=    0.000
 Gap=     0.061 Goal=   None    Shift=    0.000
 RMSDP=3.05D-04 MaxDP=1.21D-02 DE=-8.15D-04 OVMax= 5.79D-03

 Cycle   6  Pass 1  IDiag  1:
 RMSU=  5.16D-05    CP:  1.30D+00  2.47D+00  9.09D-01  8.62D-01  6.03D-01
 E= -826.653460814945     Delta-E=       -0.000157989351 Rises=F Damp=F
 DIIS: error= 3.62D-04 at cycle   6 NSaved=   6.
 NSaved= 6 IEnMin= 6 EnMin= -826.653460814945     IErMin= 6 ErrMin= 3.62D-04
 ErrMax= 3.62D-04  0.00D+00 EMaxC= 1.00D-01 BMatC= 2.39D-05 BMatP= 7.68D-04
 IDIUse=3 WtCom= 9.96D-01 WtEn= 3.62D-03
 Coeff-Com:  0.144D-01-0.219D-01-0.268D-01-0.436D-01 0.380D-01 0.104D+01
 Coeff-En:   0.000D+00 0.000D+00 0.000D+00 0.000D+00 0.000D+00 0.100D+01
 Coeff:      0.144D-01-0.218D-01-0.267D-01-0.434D-01 0.378D-01 0.104D+01
 Gap=     0.216 Goal=   None    Shift=    0.000
 Gap=     0.062 Goal=   None    Shift=    0.000
 RMSDP=3.95D-05 MaxDP=1.87D-03 DE=-1.58D-04 OVMax= 2.77D-03

 Cycle   7  Pass 1  IDiag  1:
 RMSU=  3.29D-05    CP:  1.30D+00  2.47D+00  9.11D-01  8.74D-01  6.78D-01
                    CP:  1.06D+00
 E= -826.653478459783     Delta-E=       -0.000017644838 Rises=F Damp=F
 DIIS: error= 2.91D-04 at cycle   7 NSaved=   7.
 NSaved= 7 IEnMin= 7 EnMin= -826.653478459783     IErMin= 7 ErrMin= 2.91D-04
 ErrMax= 2.91D-04  0.00D+00 EMaxC= 1.00D-01 BMatC= 1.56D-05 BMatP= 2.39D-05
 IDIUse=3 WtCom= 9.97D-01 WtEn= 2.91D-03
 Coeff-Com:  0.197D-01-0.266D-01-0.397D-01-0.116D+00-0.123D+00 0.626D+00
 Coeff-Com:  0.659D+00
 Coeff-En:   0.000D+00 0.000D+00 0.000D+00 0.000D+00 0.000D+00 0.000D+00
 Coeff-En:   0.100D+01
 Coeff:      0.196D-01-0.266D-01-0.395D-01-0.116D+00-0.122D+00 0.624D+00
 Coeff:      0.660D+00
 Gap=     0.215 Goal=   None    Shift=    0.000
 Gap=     0.062 Goal=   None    Shift=    0.000
 RMSDP=2.52D-05 MaxDP=1.08D-03 DE=-1.76D-05 OVMax= 1.60D-03

 Cycle   8  Pass 1  IDiag  1:
 RMSU=  1.49D-05    CP:  1.30D+00  2.47D+00  9.12D-01  8.88D-01  6.80D-01
                    CP:  1.37D+00  7.28D-01
 E= -826.653484265043     Delta-E=       -0.000005805260 Rises=F Damp=F
 DIIS: error= 8.22D-05 at cycle   8 NSaved=   8.
 NSaved= 8 IEnMin= 8 EnMin= -826.653484265043     IErMin= 8 ErrMin= 8.22D-05
 ErrMax= 8.22D-05  0.00D+00 EMaxC= 1.00D-01 BMatC= 1.10D-06 BMatP= 1.56D-05
 IDIUse=1 WtCom= 1.00D+00 WtEn= 0.00D+00
 Coeff-Com:  0.341D-02-0.411D-02-0.588D-02-0.245D-01-0.446D-01-0.444D-01
 Coeff-Com:  0.202D+00 0.918D+00
 Coeff:      0.341D-02-0.411D-02-0.588D-02-0.245D-01-0.446D-01-0.444D-01
 Coeff:      0.202D+00 0.918D+00
 Gap=     0.215 Goal=   None    Shift=    0.000
 Gap=     0.062 Goal=   None    Shift=    0.000
 RMSDP=1.37D-05 MaxDP=6.65D-04 DE=-5.81D-06 OVMax= 5.92D-04

 Cycle   9  Pass 1  IDiag  1:
 RMSU=  3.58D-06    CP:  1.30D+00  2.47D+00  9.11D-01  8.86D-01  6.81D-01
                    CP:  1.41D+00  9.06D-01  1.13D+00
 E= -826.653484874613     Delta-E=       -0.000000609569 Rises=F Damp=F
 DIIS: error= 1.11D-05 at cycle   9 NSaved=   9.
 NSaved= 9 IEnMin= 9 EnMin= -826.653484874613     IErMin= 9 ErrMin= 1.11D-05
 ErrMax= 1.11D-05  0.00D+00 EMaxC= 1.00D-01 BMatC= 5.59D-08 BMatP= 1.10D-06
 IDIUse=1 WtCom= 1.00D+00 WtEn= 0.00D+00
 Coeff-Com: -0.650D-03 0.870D-03 0.271D-02 0.811D-02 0.974D-02-0.462D-01
 Coeff-Com: -0.404D-01 0.297D-01 0.104D+01
 Coeff:     -0.650D-03 0.870D-03 0.271D-02 0.811D-02 0.974D-02-0.462D-01
 Coeff:     -0.404D-01 0.297D-01 0.104D+01
 Gap=     0.215 Goal=   None    Shift=    0.000
 Gap=     0.062 Goal=   None    Shift=    0.000
 RMSDP=3.39D-06 MaxDP=1.54D-04 DE=-6.10D-07 OVMax= 6.34D-05

 Cycle  10  Pass 1  IDiag  1:
 RMSU=  9.99D-07    CP:  1.30D+00  2.47D+00  9.11D-01  8.86D-01  6.82D-01
                    CP:  1.41D+00  9.17D-01  1.18D+00  1.10D+00
 E= -826.653484894835     Delta-E=       -0.000000020222 Rises=F Damp=F
 DIIS: error= 4.05D-06 at cycle  10 NSaved=  10.
 NSaved=10 IEnMin=10 EnMin= -826.653484894835     IErMin=10 ErrMin= 4.05D-06
 ErrMax= 4.05D-06  0.00D+00 EMaxC= 1.00D-01 BMatC= 5.64D-09 BMatP= 5.59D-08
 IDIUse=1 WtCom= 1.00D+00 WtEn= 0.00D+00
 Coeff-Com: -0.355D-03 0.469D-03 0.738D-03 0.260D-02 0.340D-02-0.687D-02
 Coeff-Com: -0.157D-01-0.368D-01 0.227D+00 0.826D+00
 Coeff:     -0.355D-03 0.469D-03 0.738D-03 0.260D-02 0.340D-02-0.687D-02
 Coeff:     -0.157D-01-0.368D-01 0.227D+00 0.826D+00
 Gap=     0.215 Goal=   None    Shift=    0.000
 Gap=     0.062 Goal=   None    Shift=    0.000
 RMSDP=9.50D-07 MaxDP=4.14D-05 DE=-2.02D-08 OVMax= 1.14D-05

 Cycle  11  Pass 1  IDiag  1:
 RMSU=  1.99D-07    CP:  1.30D+00  2.47D+00  9.11D-01  8.86D-01  6.82D-01
                    CP:  1.41D+00  9.18D-01  1.18D+00  1.13D+00  1.18D+00
 E= -826.653484896617     Delta-E=       -0.000000001782 Rises=F Damp=F
 DIIS: error= 9.50D-07 at cycle  11 NSaved=  11.
 NSaved=11 IEnMin=11 EnMin= -826.653484896617     IErMin=11 ErrMin= 9.50D-07
 ErrMax= 9.50D-07  0.00D+00 EMaxC= 1.00D-01 BMatC= 4.16D-10 BMatP= 5.64D-09
 IDIUse=1 WtCom= 1.00D+00 WtEn= 0.00D+00
 Coeff-Com: -0.619D-05 0.326D-05-0.234D-03-0.720D-03-0.810D-03 0.627D-02
 Coeff-Com:  0.368D-02-0.120D-01-0.137D+00 0.511D-01 0.109D+01
 Coeff:     -0.619D-05 0.326D-05-0.234D-03-0.720D-03-0.810D-03 0.627D-02
 Coeff:      0.368D-02-0.120D-01-0.137D+00 0.511D-01 0.109D+01
 Gap=     0.215 Goal=   None    Shift=    0.000
 Gap=     0.062 Goal=   None    Shift=    0.000
 RMSDP=1.74D-07 MaxDP=7.48D-06 DE=-1.78D-09 OVMax= 6.44D-06

 Cycle  12  Pass 1  IDiag  1:
 RMSU=  6.91D-08    CP:  1.30D+00  2.47D+00  9.11D-01  8.86D-01  6.82D-01
                    CP:  1.41D+00  9.18D-01  1.18D+00  1.14D+00  1.31D+00
                    CP:  1.33D+00
 E= -826.653484896841     Delta-E=       -0.000000000224 Rises=F Damp=F
 DIIS: error= 1.90D-07 at cycle  12 NSaved=  12.
 NSaved=12 IEnMin=12 EnMin= -826.653484896841     IErMin=12 ErrMin= 1.90D-07
 ErrMax= 1.90D-07  0.00D+00 EMaxC= 1.00D-01 BMatC= 1.05D-11 BMatP= 4.16D-10
 IDIUse=1 WtCom= 1.00D+00 WtEn= 0.00D+00
 Coeff-Com:  0.208D-04-0.271D-04-0.625D-05-0.212D-04-0.246D-04-0.562D-03
 Coeff-Com: -0.495D-05 0.352D-02 0.113D-01-0.451D-01-0.175D+00 0.121D+01
 Coeff:      0.208D-04-0.271D-04-0.625D-05-0.212D-04-0.246D-04-0.562D-03
 Coeff:     -0.495D-05 0.352D-02 0.113D-01-0.451D-01-0.175D+00 0.121D+01
 Gap=     0.215 Goal=   None    Shift=    0.000
 Gap=     0.062 Goal=   None    Shift=    0.000
 RMSDP=4.59D-08 MaxDP=1.77D-06 DE=-2.24D-10 OVMax= 1.20D-06

 Cycle  13  Pass 1  IDiag  1:
 RMSU=  1.75D-08    CP:  1.30D+00  2.47D+00  9.11D-01  8.86D-01  6.82D-01
                    CP:  1.41D+00  9.19D-01  1.18D+00  1.14D+00  1.32D+00
                    CP:  1.40D+00  1.29D+00
 E= -826.653484896847     Delta-E=       -0.000000000005 Rises=F Damp=F
 DIIS: error= 2.57D-08 at cycle  13 NSaved=  13.
 NSaved=13 IEnMin=13 EnMin= -826.653484896847     IErMin=13 ErrMin= 2.57D-08
 ErrMax= 2.57D-08  0.00D+00 EMaxC= 1.00D-01 BMatC= 3.13D-13 BMatP= 1.05D-11
 IDIUse=1 WtCom= 1.00D+00 WtEn= 0.00D+00
 Coeff-Com: -0.141D-05 0.199D-05 0.591D-05 0.222D-04 0.221D-04-0.128D-03
 Coeff-Com: -0.132D-03 0.641D-04 0.294D-02 0.285D-02-0.196D-01-0.951D-01
 Coeff-Com:  0.111D+01
 Coeff:     -0.141D-05 0.199D-05 0.591D-05 0.222D-04 0.221D-04-0.128D-03
 Coeff:     -0.132D-03 0.641D-04 0.294D-02 0.285D-02-0.196D-01-0.951D-01
 Coeff:      0.111D+01
 Gap=     0.215 Goal=   None    Shift=    0.000
 Gap=     0.062 Goal=   None    Shift=    0.000
 RMSDP=1.12D-08 MaxDP=5.35D-07 DE=-5.23D-12 OVMax= 1.69D-07

 Cycle  14  Pass 1  IDiag  1:
 RMSU=  5.40D-09    CP:  1.30D+00  2.47D+00  9.11D-01  8.86D-01  6.82D-01
                    CP:  1.41D+00  9.19D-01  1.18D+00  1.15D+00  1.32D+00
                    CP:  1.41D+00  1.35D+00  1.08D+00
 E= -826.653484896846     Delta-E=        0.000000000000 Rises=F Damp=F
 DIIS: error= 4.37D-09 at cycle  14 NSaved=  14.
 NSaved=14 IEnMin=13 EnMin= -826.653484896847     IErMin=14 ErrMin= 4.37D-09
 ErrMax= 4.37D-09  0.00D+00 EMaxC= 1.00D-01 BMatC= 1.28D-14 BMatP= 3.13D-13
 IDIUse=1 WtCom= 1.00D+00 WtEn= 0.00D+00
 Coeff-Com: -0.635D-06 0.831D-06 0.518D-06 0.131D-05 0.253D-05 0.115D-04
 Coeff-Com: -0.533D-05-0.110D-03-0.283D-03 0.140D-02 0.515D-02-0.394D-01
 Coeff-Com:  0.245D-01 0.101D+01
 Coeff:     -0.635D-06 0.831D-06 0.518D-06 0.131D-05 0.253D-05 0.115D-04
 Coeff:     -0.533D-05-0.110D-03-0.283D-03 0.140D-02 0.515D-02-0.394D-01
 Coeff:      0.245D-01 0.101D+01
 Gap=     0.215 Goal=   None    Shift=    0.000
 Gap=     0.062 Goal=   None    Shift=    0.000
 RMSDP=3.45D-09 MaxDP=2.49D-07 DE= 4.55D-13 OVMax= 2.63D-08

 SCF Done:  E(UPBE1PBE) =  -826.653484897     A.U. after   14 cycles
            NFock= 14  Conv=0.35D-08     -V/T= 2.0039
 <Sx>= 0.0000 <Sy>= 0.0000 <Sz>= 0.5000 <S**2>= 0.7695 S= 0.5097
 <L.S>=  0.00000000000    
 KE= 8.234587584470D+02 PE=-3.374893963285D+03 EE= 1.006620332293D+03
 Annihilation of the first spin contaminant:
 S**2 before annihilation     0.7695,   after     0.7502
 Leave Link  502 at Thu Jan 30 14:30:40 2025, MaxMem=   104857600 cpu:              78.9 elap:              79.1
 (Enter /sw/cluster/pub/apps//g16/l601.exe)
 Copying SCF densities to generalized density rwf, IOpCl= 1 IROHF=0.

 **********************************************************************

            Population analysis using the SCF density.

 **********************************************************************

 Alpha  occ. eigenvalues --  -25.05313 -25.05312 -25.05312 -25.05312 -25.02125
 Alpha  occ. eigenvalues --  -25.02125 -10.63366 -10.63364 -10.63317 -10.63316
 Alpha  occ. eigenvalues --  -10.60034 -10.60033  -1.53008  -1.52772  -1.51827
 Alpha  occ. eigenvalues --   -1.51541  -1.49093  -1.49009  -1.18750  -1.07740
 Alpha  occ. eigenvalues --   -1.05513  -0.93756  -0.93680  -0.86091  -0.85094
 Alpha  occ. eigenvalues --   -0.83525  -0.81032  -0.78997  -0.78719  -0.78370
 Alpha  occ. eigenvalues --   -0.77833  -0.75888  -0.74132  -0.72688  -0.70228
 Alpha  occ. eigenvalues --   -0.70000  -0.69771  -0.68331  -0.68262  -0.67017
 Alpha  occ. eigenvalues --   -0.65369  -0.63410  -0.61508  -0.54740  -0.51595
 Alpha virt. eigenvalues --   -0.30095  -0.27416  -0.26778  -0.17460  -0.16116
 Alpha virt. eigenvalues --   -0.13888  -0.12324  -0.10328  -0.08816  -0.07852
 Alpha virt. eigenvalues --   -0.07202  -0.06938  -0.06179  -0.05720  -0.05459
 Alpha virt. eigenvalues --   -0.04946  -0.02028  -0.01646  -0.01150  -0.01094
 Alpha virt. eigenvalues --   -0.00308  -0.00154  -0.00054   0.00228   0.04499
 Alpha virt. eigenvalues --    0.04509   0.05321   0.05449   0.05533   0.07646
 Alpha virt. eigenvalues --    0.08786   0.08992   0.09070   0.09537   0.12476
 Alpha virt. eigenvalues --    0.12935   0.13017   0.13287   0.15284   0.17071
 Alpha virt. eigenvalues --    0.17652   0.17770   0.17927   0.18534   0.20217
 Alpha virt. eigenvalues --    0.20251   0.21543   0.23547   0.24425   0.24966
 Alpha virt. eigenvalues --    0.26068   0.26526   0.27164   0.27371   0.27540
 Alpha virt. eigenvalues --    0.29676   0.31015   0.32634   0.33860   0.35379
 Alpha virt. eigenvalues --    0.35542   0.35697   0.36160   0.36688   0.37010
 Alpha virt. eigenvalues --    0.38198   0.40246   0.41092   0.41189   0.42138
 Alpha virt. eigenvalues --    0.51199   0.51501   0.51683   0.52815   0.57576
 Alpha virt. eigenvalues --    0.60502   0.65986   0.66025   0.66343   0.69825
 Alpha virt. eigenvalues --    0.70663   0.75780   0.76411   0.78626   0.80934
 Alpha virt. eigenvalues --    0.85838   0.86252   0.86883   0.89000   0.89970
 Alpha virt. eigenvalues --    0.90686   0.98572   1.05734   1.06299   1.15915
 Alpha virt. eigenvalues --    1.16998   1.21540   1.22068   1.22217   1.22842
 Alpha virt. eigenvalues --    1.23034   1.23466   1.23866   1.26254   1.26316
 Alpha virt. eigenvalues --    1.26638   1.28917   1.32834   1.33142   1.34311
 Alpha virt. eigenvalues --    1.34315   1.35487   1.35641   1.36805   1.36817
 Alpha virt. eigenvalues --    1.44266   1.46406   1.47833   1.48565   1.49019
 Alpha virt. eigenvalues --    1.54289   1.55679   1.55923   1.57000   1.66534
 Alpha virt. eigenvalues --    1.70782   1.78676   1.79992   1.82751   1.84377
 Alpha virt. eigenvalues --    1.89370   1.90365   1.92004   1.93074   1.94647
 Alpha virt. eigenvalues --    1.97205   2.09941   2.10798   2.11635   2.17532
 Alpha virt. eigenvalues --    2.29758   2.41795   2.43907   2.54722   2.57336
 Alpha virt. eigenvalues --    2.66631   2.77079   2.79052   2.80984   2.82581
 Alpha virt. eigenvalues --    2.84296   2.90415   2.90596   3.14111   3.14333
 Alpha virt. eigenvalues --    3.37693   3.48226   3.48655   3.53756   3.54300
 Alpha virt. eigenvalues --    3.54979   3.55142   3.55175   3.57617   3.58065
 Alpha virt. eigenvalues --    3.59786   3.60435   3.62028   3.67755   3.69388
 Alpha virt. eigenvalues --    3.70503   3.71366   3.71564   3.73115   3.75141
 Alpha virt. eigenvalues --    3.77521   3.80051   3.80447   3.81859   3.90193
 Alpha virt. eigenvalues --    3.91817   3.96483   4.39845   4.58011   4.59263
 Alpha virt. eigenvalues --    4.59386   4.67961   4.69722   4.75513   6.07810
 Alpha virt. eigenvalues --    6.10625   6.12482   6.13529   6.16043   6.18509
 Alpha virt. eigenvalues --    6.19768   6.23206   6.24757   6.26237   6.26911
 Alpha virt. eigenvalues --    6.28112   6.35929   6.50453   6.52082   6.59093
 Alpha virt. eigenvalues --    6.60914   6.67310  23.14282  23.54023  23.55985
 Alpha virt. eigenvalues --   23.68110  23.70301  23.79159  66.64026  66.66893
 Alpha virt. eigenvalues --   66.68766  66.70076  66.72435  66.78980
  Beta  occ. eigenvalues --  -25.05059 -25.05058 -25.05058 -25.05058 -25.02171
  Beta  occ. eigenvalues --  -25.02170 -10.62926 -10.62926 -10.62882 -10.62881
  Beta  occ. eigenvalues --  -10.60231 -10.60230  -1.52471  -1.52196  -1.51359
  Beta  occ. eigenvalues --   -1.50990  -1.49157  -1.49032  -1.17736  -1.05898
  Beta  occ. eigenvalues --   -1.05357  -0.93297  -0.93037  -0.85809  -0.84865
  Beta  occ. eigenvalues --   -0.83274  -0.80621  -0.78983  -0.78220  -0.77686
  Beta  occ. eigenvalues --   -0.76751  -0.73530  -0.73184  -0.70860  -0.69978
  Beta  occ. eigenvalues --   -0.69553  -0.69480  -0.68227  -0.68057  -0.66704
  Beta  occ. eigenvalues --   -0.65231  -0.63229  -0.58763  -0.51118
  Beta virt. eigenvalues --   -0.44871  -0.26355  -0.26242  -0.25894  -0.16905
  Beta virt. eigenvalues --   -0.16044  -0.13635  -0.10077  -0.10028  -0.07881
  Beta virt. eigenvalues --   -0.07329  -0.07150  -0.06712  -0.06150  -0.05585
  Beta virt. eigenvalues --   -0.05165  -0.04938  -0.01213  -0.01112  -0.01002
  Beta virt. eigenvalues --   -0.00903  -0.00290  -0.00019  -0.00017   0.00389
  Beta virt. eigenvalues --    0.04539   0.04540   0.05570   0.05572   0.05687
  Beta virt. eigenvalues --    0.07871   0.09027   0.09087   0.09159   0.09601
  Beta virt. eigenvalues --    0.12726   0.13098   0.13320   0.13630   0.15294
  Beta virt. eigenvalues --    0.17128   0.17667   0.17827   0.18137   0.18562
  Beta virt. eigenvalues --    0.20272   0.20301   0.21572   0.23671   0.24578
  Beta virt. eigenvalues --    0.25014   0.26164   0.26547   0.27422   0.27581
  Beta virt. eigenvalues --    0.28067   0.29767   0.31266   0.32879   0.35516
  Beta virt. eigenvalues --    0.35586   0.35745   0.35996   0.36191   0.36713
  Beta virt. eigenvalues --    0.37030   0.38396   0.41261   0.41570   0.41583
  Beta virt. eigenvalues --    0.42183   0.51506   0.51862   0.52835   0.52888
  Beta virt. eigenvalues --    0.58177   0.60973   0.66162   0.66166   0.67729
  Beta virt. eigenvalues --    0.70743   0.70972   0.76192   0.76438   0.79652
  Beta virt. eigenvalues --    0.81167   0.86006   0.86665   0.88763   0.89204
  Beta virt. eigenvalues --    0.91368   0.91442   0.98608   1.06454   1.06754
  Beta virt. eigenvalues --    1.16147   1.17451   1.21726   1.22105   1.22932
  Beta virt. eigenvalues --    1.23512   1.23615   1.23705   1.24222   1.26325
  Beta virt. eigenvalues --    1.26625   1.26680   1.29211   1.33226   1.33241
  Beta virt. eigenvalues --    1.34348   1.34492   1.35582   1.36065   1.36898
  Beta virt. eigenvalues --    1.37008   1.44312   1.47838   1.48249   1.48839
  Beta virt. eigenvalues --    1.49439   1.56021   1.56092   1.57348   1.57656
  Beta virt. eigenvalues --    1.67412   1.70977   1.79013   1.80059   1.83981
  Beta virt. eigenvalues --    1.84540   1.90039   1.90525   1.92255   1.93148
  Beta virt. eigenvalues --    1.95737   1.98021   2.10292   2.10865   2.11756
  Beta virt. eigenvalues --    2.17931   2.31153   2.43916   2.44369   2.57114
  Beta virt. eigenvalues --    2.57562   2.66796   2.77386   2.80425   2.81318
  Beta virt. eigenvalues --    2.82609   2.84547   2.90644   2.90808   3.14354
  Beta virt. eigenvalues --    3.14650   3.38057   3.48632   3.49161   3.54429
  Beta virt. eigenvalues --    3.55012   3.55696   3.55759   3.55788   3.57545
  Beta virt. eigenvalues --    3.58031   3.60556   3.60935   3.62076   3.67813
  Beta virt. eigenvalues --    3.69989   3.71170   3.71909   3.72158   3.73451
  Beta virt. eigenvalues --    3.75941   3.77555   3.80371   3.80541   3.81916
  Beta virt. eigenvalues --    3.90307   3.91844   3.96616   4.40076   4.58320
  Beta virt. eigenvalues --    4.59576   4.60014   4.68290   4.69772   4.75671
  Beta virt. eigenvalues --    6.08604   6.11639   6.12917   6.14539   6.16100
  Beta virt. eigenvalues --    6.18643   6.20176   6.23386   6.24815   6.26414
  Beta virt. eigenvalues --    6.27034   6.28121   6.36014   6.50647   6.52166
  Beta virt. eigenvalues --    6.59299   6.60946   6.67411  23.14524  23.54475
  Beta virt. eigenvalues --   23.56069  23.68558  23.70314  23.79352  66.64195
  Beta virt. eigenvalues --   66.67108  66.68847  66.70291  66.72443  66.79076
          Condensed to atoms (all electrons):
               1          2          3          4          5          6
     1  C   15.649715   0.808461  -4.042153  -3.419374  -4.137989   0.757692
     2  C    0.808461  15.649715   0.757692  -4.137989  -3.419374  -4.042153
     3  C   -4.042153   0.757692  15.685068   0.757692  -4.042153  -3.440002
     4  C   -3.419374  -4.137989   0.757692  15.649715   0.808461  -4.042153
     5  C   -4.137989  -3.419374  -4.042153   0.808461  15.649715   0.757692
     6  C    0.757692  -4.042153  -3.440002  -4.042153   0.757692  15.685068
     7  F    0.602560  -0.205835  -0.043231   0.015472  -0.041989  -0.203374
     8  F   -0.205835   0.602560  -0.203374  -0.041989   0.015472  -0.043231
     9  F   -0.042521  -0.209220   0.594408  -0.209220  -0.042521   0.015263
    10  F    0.015472  -0.041989  -0.203374   0.602560  -0.205835  -0.043231
    11  F   -0.041989   0.015472  -0.043231  -0.205835   0.602560  -0.203374
    12  F   -0.209220  -0.042521   0.015263  -0.042521  -0.209220   0.594408
               7          8          9         10         11         12
     1  C    0.602560  -0.205835  -0.042521   0.015472  -0.041989  -0.209220
     2  C   -0.205835   0.602560  -0.209220  -0.041989   0.015472  -0.042521
     3  C   -0.043231  -0.203374   0.594408  -0.203374  -0.043231   0.015263
     4  C    0.015472  -0.041989  -0.209220   0.602560  -0.205835  -0.042521
     5  C   -0.041989   0.015472  -0.042521  -0.205835   0.602560  -0.209220
     6  C   -0.203374  -0.043231   0.015263  -0.043231  -0.203374   0.594408
     7  F    8.929287   0.005437   0.000517  -0.000088   0.000566   0.005731
     8  F    0.005437   8.929287   0.005731   0.000566  -0.000088   0.000517
     9  F    0.000517   0.005731   8.989064   0.005731   0.000517  -0.000098
    10  F   -0.000088   0.000566   0.005731   8.929287   0.005437   0.000517
    11  F    0.000566  -0.000088   0.000517   0.005437   8.929287   0.005731
    12  F    0.005731   0.000517  -0.000098   0.000517   0.005731   8.989064
          Atomic-Atomic Spin Densities.
               1          2          3          4          5          6
     1  C    0.229341   0.076384   0.002679   0.021631  -0.031664  -0.003416
     2  C    0.076384   0.229341  -0.003416  -0.031664   0.021631   0.002679
     3  C    0.002679  -0.003416  -0.148883  -0.003416   0.002679   0.013905
     4  C    0.021631  -0.031664  -0.003416   0.229341   0.076384   0.002679
     5  C   -0.031664   0.021631   0.002679   0.076384   0.229341  -0.003416
     6  C   -0.003416   0.002679   0.013905   0.002679  -0.003416  -0.148883
     7  F   -0.038253  -0.001341   0.000380  -0.000733   0.000008   0.003099
     8  F   -0.001341  -0.038253   0.003099   0.000008  -0.000733   0.000380
     9  F    0.000296  -0.001090   0.016923  -0.001090   0.000296  -0.000418
    10  F   -0.000733   0.000008   0.003099  -0.038253  -0.001341   0.000380
    11  F    0.000008  -0.000733   0.000380  -0.001341  -0.038253   0.003099
    12  F   -0.001090   0.000296  -0.000418   0.000296  -0.001090   0.016923
               7          8          9         10         11         12
     1  C   -0.038253  -0.001341   0.000296  -0.000733   0.000008  -0.001090
     2  C   -0.001341  -0.038253  -0.001090   0.000008  -0.000733   0.000296
     3  C    0.000380   0.003099   0.016923   0.003099   0.000380  -0.000418
     4  C   -0.000733   0.000008  -0.001090  -0.038253  -0.001341   0.000296
     5  C    0.000008  -0.000733   0.000296  -0.001341  -0.038253  -0.001090
     6  C    0.003099   0.000380  -0.000418   0.000380   0.003099   0.016923
     7  F    0.092794   0.001050   0.000019  -0.000006  -0.000013  -0.000247
     8  F    0.001050   0.092794  -0.000247  -0.000013  -0.000006   0.000019
     9  F    0.000019  -0.000247  -0.022668  -0.000247   0.000019  -0.000015
    10  F   -0.000006  -0.000013  -0.000247   0.092794   0.001050   0.000019
    11  F   -0.000013  -0.000006   0.000019   0.001050   0.092794  -0.000247
    12  F   -0.000247   0.000019  -0.000015   0.000019  -0.000247  -0.022668
 Mulliken charges and spin densities:
               1          2
     1  C    0.265182   0.253844
     2  C    0.265182   0.253844
     3  C    0.207394  -0.112988
     4  C    0.265182   0.253844
     5  C    0.265182   0.253844
     6  C    0.207394  -0.112988
     7  F   -0.065053   0.056760
     8  F   -0.065053   0.056760
     9  F   -0.107653  -0.008221
    10  F   -0.065053   0.056760
    11  F   -0.065053   0.056760
    12  F   -0.107653  -0.008221
 Sum of Mulliken charges =   1.00000   1.00000
 Mulliken charges and spin densities with hydrogens summed into heavy atoms:
               1          2
     1  C    0.265182   0.253844
     2  C    0.265182   0.253844
     3  C    0.207394  -0.112988
     4  C    0.265182   0.253844
     5  C    0.265182   0.253844
     6  C    0.207394  -0.112988
     7  F   -0.065053   0.056760
     8  F   -0.065053   0.056760
     9  F   -0.107653  -0.008221
    10  F   -0.065053   0.056760
    11  F   -0.065053   0.056760
    12  F   -0.107653  -0.008221
 Electronic spatial extent (au):  <R**2>=           1874.4284
 Charge=              1.0000 electrons
 Dipole moment (field-independent basis, Debye):
    X=              0.0000    Y=              0.0000    Z=             -0.0000  Tot=              0.0000
 Quadrupole moment (field-independent basis, Debye-Ang):
   XX=            -52.5967   YY=            -57.5188   ZZ=            -57.5485
   XY=              0.0000   XZ=              0.0000   YZ=              0.0000
 Traceless Quadrupole moment (field-independent basis, Debye-Ang):
   XX=              3.2913   YY=             -1.6308   ZZ=             -1.6605
   XY=              0.0000   XZ=              0.0000   YZ=              0.0000
 Octapole moment (field-independent basis, Debye-Ang**2):
  XXX=             -0.0000  YYY=              0.0000  ZZZ=             -0.0000  XYY=              0.0000
  XXY=              0.0000  XXZ=             -0.0000  XZZ=             -0.0000  YZZ=              0.0000
  YYZ=              0.0000  XYZ=             -0.0000
 Hexadecapole moment (field-independent basis, Debye-Ang**3):
 XXXX=           -869.0980 YYYY=           -905.0639 ZZZZ=            -46.9208 XXXY=              0.0000
 XXXZ=              0.0000 YYYX=              0.0000 YYYZ=              0.0000 ZZZX=              0.0000
 ZZZY=              0.0000 XXYY=           -290.3805 XXZZ=           -150.7514 YYZZ=           -154.0130
 XXYZ=             -0.0000 YYXZ=              0.0000 ZZXY=              0.0000
 N-N= 7.181613876486D+02 E-N=-3.374893963382D+03  KE= 8.234587584470D+02
                          Isotropic Fermi Contact Couplings
        Atom                 a.u.       MegaHertz       Gauss      10(-4) cm-1
     1  C(13)              0.01088      12.23011       4.36401       4.07952
     2  C(13)              0.01088      12.23011       4.36401       4.07952
     3  C(13)             -0.02678     -30.10251     -10.74132     -10.04111
     4  C(13)              0.01088      12.23011       4.36401       4.07952
     5  C(13)              0.01088      12.23011       4.36401       4.07952
     6  C(13)             -0.02678     -30.10251     -10.74132     -10.04111
     7  F(19)              0.01329      55.93009      19.95725      18.65627
     8  F(19)              0.01329      55.93009      19.95725      18.65627
     9  F(19)             -0.00404     -17.01546      -6.07154      -5.67575
    10  F(19)              0.01329      55.93009      19.95725      18.65627
    11  F(19)              0.01329      55.93009      19.95725      18.65627
    12  F(19)             -0.00404     -17.01546      -6.07154      -5.67575
 --------------------------------------------------------
       Center         ----  Spin Dipole Couplings  ----
                      3XX-RR        3YY-RR        3ZZ-RR
 --------------------------------------------------------
     1   Atom       -0.175235     -0.167137      0.342371
     2   Atom       -0.175235     -0.167137      0.342371
     3   Atom        0.060621      0.061437     -0.122058
     4   Atom       -0.175235     -0.167137      0.342371
     5   Atom       -0.175235     -0.167137      0.342371
     6   Atom        0.060621      0.061437     -0.122058
     7   Atom       -0.279387     -0.265007      0.544394
     8   Atom       -0.279387     -0.265007      0.544394
     9   Atom        0.033713      0.059112     -0.092825
    10   Atom       -0.279387     -0.265007      0.544394
    11   Atom       -0.279387     -0.265007      0.544394
    12   Atom        0.033713      0.059112     -0.092825
 --------------------------------------------------------
                        XY            XZ            YZ
 --------------------------------------------------------
     1   Atom        0.005035      0.000000      0.000000
     2   Atom       -0.005035     -0.000000     -0.000000
     3   Atom       -0.000000     -0.000000      0.000000
     4   Atom        0.005035     -0.000000      0.000000
     5   Atom       -0.005035     -0.000000     -0.000000
     6   Atom       -0.000000      0.000000      0.000000
     7   Atom       -0.011082     -0.000000     -0.000000
     8   Atom        0.011082     -0.000000     -0.000000
     9   Atom       -0.000000      0.000000      0.000000
    10   Atom       -0.011082     -0.000000      0.000000
    11   Atom        0.011082      0.000000     -0.000000
    12   Atom       -0.000000     -0.000000      0.000000
 --------------------------------------------------------


 ---------------------------------------------------------------------------------
              Anisotropic Spin Dipole Couplings in Principal Axis System
 ---------------------------------------------------------------------------------

       Atom             a.u.   MegaHertz   Gauss  10(-4) cm-1        Axes

              Baa    -0.1776   -23.838    -8.506    -7.952  0.9019 -0.4320 -0.0000
     1 C(13)  Bbb    -0.1647   -22.104    -7.887    -7.373  0.4320  0.9019 -0.0000
              Bcc     0.3424    45.943    16.394    15.325  0.0000  0.0000  1.0000
 
              Baa    -0.1776   -23.838    -8.506    -7.952  0.9019  0.4320  0.0000
     2 C(13)  Bbb    -0.1647   -22.104    -7.887    -7.373 -0.4320  0.9019  0.0000
              Bcc     0.3424    45.943    16.394    15.325 -0.0000 -0.0000  1.0000
 
              Baa    -0.1221   -16.379    -5.844    -5.463  0.0000 -0.0000  1.0000
     3 C(13)  Bbb     0.0606     8.135     2.903     2.713  1.0000  0.0000 -0.0000
              Bcc     0.0614     8.244     2.942     2.750 -0.0000  1.0000  0.0000
 
              Baa    -0.1776   -23.838    -8.506    -7.952  0.9019 -0.4320  0.0000
     4 C(13)  Bbb    -0.1647   -22.104    -7.887    -7.373  0.4320  0.9019 -0.0000
              Bcc     0.3424    45.943    16.394    15.325 -0.0000  0.0000  1.0000
 
              Baa    -0.1776   -23.838    -8.506    -7.952  0.9019  0.4320  0.0000
     5 C(13)  Bbb    -0.1647   -22.104    -7.887    -7.373 -0.4320  0.9019  0.0000
              Bcc     0.3424    45.943    16.394    15.325 -0.0000 -0.0000  1.0000
 
              Baa    -0.1221   -16.379    -5.844    -5.463 -0.0000 -0.0000  1.0000
     6 C(13)  Bbb     0.0606     8.135     2.903     2.713  1.0000  0.0000  0.0000
              Bcc     0.0614     8.244     2.942     2.750 -0.0000  1.0000  0.0000
 
              Baa    -0.2854  -143.339   -51.147   -47.813  0.8787  0.4773  0.0000
     7 F(19)  Bbb    -0.2590  -130.070   -46.412   -43.387 -0.4773  0.8787  0.0000
              Bcc     0.5444   273.409    97.559    91.199 -0.0000 -0.0000  1.0000
 
              Baa    -0.2854  -143.339   -51.147   -47.813  0.8787 -0.4773  0.0000
     8 F(19)  Bbb    -0.2590  -130.070   -46.412   -43.387  0.4773  0.8787  0.0000
              Bcc     0.5444   273.409    97.559    91.199 -0.0000 -0.0000  1.0000
 
              Baa    -0.0928   -46.619   -16.635   -15.550 -0.0000 -0.0000  1.0000
     9 F(19)  Bbb     0.0337    16.932     6.042     5.648  1.0000  0.0000  0.0000
              Bcc     0.0591    29.688    10.593     9.903 -0.0000  1.0000  0.0000
 
              Baa    -0.2854  -143.339   -51.147   -47.813  0.8787  0.4773  0.0000
    10 F(19)  Bbb    -0.2590  -130.070   -46.412   -43.387 -0.4773  0.8787 -0.0000
              Bcc     0.5444   273.409    97.559    91.199 -0.0000  0.0000  1.0000
 
              Baa    -0.2854  -143.339   -51.147   -47.813  0.8787 -0.4773 -0.0000
    11 F(19)  Bbb    -0.2590  -130.070   -46.412   -43.387  0.4773  0.8787  0.0000
              Bcc     0.5444   273.409    97.559    91.199  0.0000 -0.0000  1.0000
 
              Baa    -0.0928   -46.619   -16.635   -15.550  0.0000 -0.0000  1.0000
    12 F(19)  Bbb     0.0337    16.932     6.042     5.648  1.0000  0.0000 -0.0000
              Bcc     0.0591    29.688    10.593     9.903 -0.0000  1.0000  0.0000
 

 ---------------------------------------------------------------------------------

 No NMR shielding tensors so no spin-rotation constants.
 Leave Link  601 at Thu Jan 30 14:30:40 2025, MaxMem=   104857600 cpu:               0.1 elap:               0.1
 (Enter /sw/cluster/pub/apps//g16/l701.exe)
 ... and contract with generalized density number  0.
 Compute integral first derivatives.
 Leave Link  701 at Thu Jan 30 14:30:40 2025, MaxMem=   104857600 cpu:               0.1 elap:               0.1
 (Enter /sw/cluster/pub/apps//g16/l702.exe)
 L702 exits ... SP integral derivatives will be done elsewhere.
 Leave Link  702 at Thu Jan 30 14:30:40 2025, MaxMem=   104857600 cpu:               0.0 elap:               0.0
 (Enter /sw/cluster/pub/apps//g16/l703.exe)
 Integral derivatives from FoFJK, PRISM(SPDF).
 Compute integral first derivatives, UseDBF=F ICtDFT=           0.
 Calling FoFJK, ICntrl=      2127 FMM=F ISym2X=0 I1Cent= 0 IOpClX= 1 NMat=1 NMatS=1 NMatT=0.
 FoFJK:  IHMeth= 1 ICntrl=    2127 DoSepK=F KAlg= 0 I1Cent=           0 FoldK=F
 IRaf=         0 NMat=       1 IRICut=       1 DoRegI=T DoRafI=F ISym2E= 0 IDoP0=0 IntGTp=1.
 FoFCou: FMM=F IPFlag=           0 FMFlag=      100000 FMFlg1=         800
         NFxFlg=           0 DoJE=F BraDBF=F KetDBF=F FulRan=T
         wScrn=  0.000000 ICntrl=      2127 IOpCl=  1 I1Cent=           0 NGrid=           0
         NMat0=    1 NMatS0=      1 NMatT0=    0 NMatD0=    1 NMtDS0=    0 NMtDT0=    0
 Symmetry not used in FoFCou.
 Leave Link  703 at Thu Jan 30 14:30:59 2025, MaxMem=   104857600 cpu:              18.7 elap:              18.7
 (Enter /sw/cluster/pub/apps//g16/l716.exe)
 Dipole        = 2.37427855D-11 2.74180678D-12-9.04921933D-15
 -------------------------------------------------------------------
 Center     Atomic                   Forces (Hartrees/Bohr)
 Number     Number              X              Y              Z
 -------------------------------------------------------------------
      1        6           0.022276636    0.055166960   -0.000000000
      2        6           0.022276636   -0.055166960    0.000000000
      3        6           0.000000001   -0.026306170   -0.000000000
      4        6          -0.022276636   -0.055166960    0.000000000
      5        6          -0.022276636    0.055166960   -0.000000000
      6        6          -0.000000001    0.026306170    0.000000000
      7        9          -0.054840476   -0.033764816    0.000000000
      8        9          -0.054840476    0.033764816   -0.000000000
      9        9          -0.000000000    0.049717369   -0.000000000
     10        9           0.054840476    0.033764816    0.000000000
     11        9           0.054840476   -0.033764816   -0.000000000
     12        9           0.000000000   -0.049717369   -0.000000000
 -------------------------------------------------------------------
 Cartesian Forces:  Max     0.055166960 RMS     0.032092052
 Leave Link  716 at Thu Jan 30 14:30:59 2025, MaxMem=   104857600 cpu:               0.0 elap:               0.0
 (Enter /sw/cluster/pub/apps//g16/l103.exe)

 GradGradGradGradGradGradGradGradGradGradGradGradGradGradGradGradGradGrad
 Berny optimization.
 FormGI is forming the generalized inverse of G from B-inverse, IUseBI=4.
 Internal  Forces:  Max     0.064375653 RMS     0.022238896
 Search for a local minimum.
 Step number   1 out of a maximum of   64
 All quantities printed in internal units (Hartrees-Bohrs-Radians)
 RMS Force = .22239D-01 SwitMx=.10000D-02 MixMth= 1
 Mixed Optimization -- RFO/linear search
 Second derivative matrix not updated -- first step.
 ITU=  0
     Eigenvalues ---    0.01795   0.01795   0.01795   0.01795   0.01795
     Eigenvalues ---    0.01795   0.01795   0.01795   0.01795   0.25000
     Eigenvalues ---    0.25000   0.25000   0.25000   0.25000   0.25000
     Eigenvalues ---    0.25000   0.25000   0.25000   0.39184   0.39184
     Eigenvalues ---    0.42130   0.42130   0.42130   0.42130   0.53508
     Eigenvalues ---    0.53508   0.53508   0.53508   0.53508   0.53508
 RFO step:  Lambda=-4.83670991D-02 EMin= 1.79498689D-02
 Linear search not attempted -- first point.
 Iteration  1 RMS(Cart)=  0.05507673 RMS(Int)=  0.00030855
 Iteration  2 RMS(Cart)=  0.00049774 RMS(Int)=  0.00000016
 Iteration  3 RMS(Cart)=  0.00000021 RMS(Int)=  0.00000000
 ITry= 1 IFail=0 DXMaxC= 1.59D-01 DCOld= 1.00D+10 DXMaxT= 3.00D-01 DXLimC= 3.00D+00 Rises=F
 Variable       Old X    -DE/DX   Delta X   Delta X   Delta X     New X
                                 (Linear)    (Quad)   (Total)
    R1        2.68758   0.00970   0.00000   0.02065   0.02065   2.70823
    R2        2.68758  -0.03405   0.00000  -0.07251  -0.07251   2.61508
    R3        2.56483  -0.06438   0.00000  -0.11034  -0.11034   2.45449
    R4        2.68758  -0.03405   0.00000  -0.07251  -0.07251   2.61508
    R5        2.56483  -0.06438   0.00000  -0.11034  -0.11034   2.45449
    R6        2.68758  -0.03405   0.00000  -0.07251  -0.07251   2.61508
    R7        2.56483  -0.04972   0.00000  -0.08521  -0.08521   2.47961
    R8        2.68758   0.00970   0.00000   0.02065   0.02065   2.70823
    R9        2.56483  -0.06438   0.00000  -0.11034  -0.11034   2.45449
   R10        2.68758  -0.03405   0.00000  -0.07251  -0.07251   2.61508
   R11        2.56483  -0.06438   0.00000  -0.11034  -0.11034   2.45449
   R12        2.56483  -0.04972   0.00000  -0.08521  -0.08521   2.47961
    A1        2.09440   0.00419   0.00000   0.01404   0.01404   2.10843
    A2        2.09440  -0.00443   0.00000  -0.01485  -0.01485   2.07955
    A3        2.09440   0.00024   0.00000   0.00081   0.00081   2.09520
    A4        2.09440   0.00419   0.00000   0.01404   0.01404   2.10843
    A5        2.09440  -0.00443   0.00000  -0.01485  -0.01485   2.07955
    A6        2.09440   0.00024   0.00000   0.00081   0.00081   2.09520
    A7        2.09440  -0.00838   0.00000  -0.02808  -0.02808   2.06632
    A8        2.09440   0.00419   0.00000   0.01404   0.01404   2.10843
    A9        2.09440   0.00419   0.00000   0.01404   0.01404   2.10843
   A10        2.09440   0.00419   0.00000   0.01404   0.01404   2.10843
   A11        2.09440   0.00024   0.00000   0.00081   0.00081   2.09520
   A12        2.09440  -0.00443   0.00000  -0.01485  -0.01485   2.07955
   A13        2.09440   0.00419   0.00000   0.01404   0.01404   2.10843
   A14        2.09440  -0.00443   0.00000  -0.01485  -0.01485   2.07955
   A15        2.09440   0.00024   0.00000   0.00081   0.00081   2.09520
   A16        2.09440  -0.00838   0.00000  -0.02808  -0.02808   2.06632
   A17        2.09440   0.00419   0.00000   0.01404   0.01404   2.10843
   A18        2.09440   0.00419   0.00000   0.01404   0.01404   2.10843
    D1        0.00000  -0.00000   0.00000  -0.00000   0.00000   0.00000
    D2        3.14159  -0.00000   0.00000  -0.00000   0.00000   3.14159
    D3        3.14159  -0.00000   0.00000  -0.00000   0.00000   3.14159
    D4        0.00000  -0.00000   0.00000  -0.00000  -0.00000   0.00000
    D5        0.00000   0.00000   0.00000   0.00000  -0.00000   0.00000
    D6        3.14159   0.00000   0.00000   0.00000   0.00000   3.14159
    D7        3.14159   0.00000   0.00000   0.00000   0.00000   3.14159
    D8        0.00000   0.00000   0.00000   0.00000   0.00000   0.00000
    D9        0.00000  -0.00000   0.00000  -0.00000  -0.00000   0.00000
   D10        3.14159  -0.00000   0.00000  -0.00000   0.00000   3.14159
   D11        3.14159  -0.00000   0.00000  -0.00000   0.00000   3.14159
   D12        0.00000  -0.00000   0.00000  -0.00000   0.00000   0.00000
   D13        0.00000   0.00000   0.00000   0.00000   0.00000   0.00000
   D14        3.14159   0.00000   0.00000   0.00000   0.00000   3.14159
   D15        3.14159   0.00000   0.00000   0.00000   0.00000   3.14159
   D16        0.00000   0.00000   0.00000   0.00000  -0.00000   0.00000
   D17        0.00000  -0.00000   0.00000  -0.00000  -0.00000   0.00000
   D18        3.14159  -0.00000   0.00000  -0.00000   0.00000   3.14159
   D19        3.14159  -0.00000   0.00000  -0.00000   0.00000   3.14159
   D20        0.00000  -0.00000   0.00000  -0.00000   0.00000   0.00000
   D21        0.00000  -0.00000   0.00000  -0.00000   0.00000   0.00000
   D22        3.14159  -0.00000   0.00000  -0.00000   0.00000   3.14159
   D23        3.14159  -0.00000   0.00000  -0.00000   0.00000   3.14159
   D24        0.00000  -0.00000   0.00000  -0.00000  -0.00000   0.00000
         Item               Value     Threshold  Converged?
 Maximum Force            0.064376     0.000450     NO 
 RMS     Force            0.022239     0.000300     NO 
 Maximum Displacement     0.158942     0.001800     NO 
 RMS     Displacement     0.055125     0.001200     NO 
 Predicted change in Energy=-2.633926D-02
 Lowest energy point so far.  Saving SCF results.
 GradGradGradGradGradGradGradGradGradGradGradGradGradGradGradGradGradGrad

 Leave Link  103 at Thu Jan 30 14:30:59 2025, MaxMem=   104857600 cpu:               0.0 elap:               0.0
 (Enter /sw/cluster/pub/apps//g16/l202.exe)
                          Input orientation:                          
 ---------------------------------------------------------------------
 Center     Atomic      Atomic             Coordinates (Angstroms)
 Number     Number       Type             X           Y           Z
 ---------------------------------------------------------------------
      1          6           0        1.188608    0.716567   -0.000000
      2          6           0        1.188608   -0.716567    0.000000
      3          6           0        0.000000   -1.425242   -0.000000
      4          6           0       -1.188608   -0.716567    0.000000
      5          6           0       -1.188608    0.716567   -0.000000
      6          6           0       -0.000000    1.425242    0.000000
      7          9           0        2.322971    1.349226    0.000000
      8          9           0        2.322971   -1.349226   -0.000000
      9          9           0        0.000000   -2.737397    0.000000
     10          9           0       -2.322971   -1.349226   -0.000000
     11          9           0       -2.322971    1.349226    0.000000
     12          9           0       -0.000000    2.737397   -0.000000
 ---------------------------------------------------------------------
                    Distance matrix (angstroms):
                    1          2          3          4          5
     1  C    0.000000
     2  C    1.433133   0.000000
     3  C    2.449517   1.383839   0.000000
     4  C    2.775793   2.377216   1.383839   0.000000
     5  C    2.377216   2.775793   2.449517   1.433133   0.000000
     6  C    1.383839   2.449517   2.850484   2.449517   1.383839
     7  F    1.298860   2.356752   3.618545   4.074149   3.568115
     8  F    2.356752   1.298860   2.324215   3.568115   4.074149
     9  F    3.652760   2.344471   1.312155   2.344471   3.652760
    10  F    4.074149   3.568115   2.324215   1.298860   2.356752
    11  F    3.568115   4.074149   3.618545   2.356752   1.298860
    12  F    2.344471   3.652760   4.162639   3.652760   2.344471
                    6          7          8          9         10
     6  C    0.000000
     7  F    2.324215   0.000000
     8  F    3.618545   2.698453   0.000000
     9  F    4.162639   4.700711   2.706144   0.000000
    10  F    3.618545   5.372749   4.645943   2.706144   0.000000
    11  F    2.324215   4.645943   5.372749   4.700711   2.698453
    12  F    1.312155   2.706144   4.700711   5.474795   4.700711
                   11         12
    11  F    0.000000
    12  F    2.706144   0.000000
 Symmetry turned off by external request.
 Stoichiometry    C6F6(1+,2)
 Framework group  D2H[C2"(FC.CF),SG(C4F4)]
 Deg. of freedom     6
 Full point group                 D2H     NOp   8
 Rotational constants (GHZ):           1.0575210           1.0179636           0.5186827
 Leave Link  202 at Thu Jan 30 14:30:59 2025, MaxMem=   104857600 cpu:               0.0 elap:               0.0
 (Enter /sw/cluster/pub/apps//g16/l301.exe)
 Standard basis: 6-311++G(d,p) (5D, 7F)
 Ernie: Thresh=  0.10000D-02 Tol=  0.10000D-05 Strict=F.
   264 basis functions,   432 primitive gaussians,   276 cartesian basis functions
    45 alpha electrons       44 beta electrons
       nuclear repulsion energy       737.7226126127 Hartrees.
 IExCor= 1009 DFT=T Ex+Corr=PBE1PBE ExCW=0 ScaHFX=  0.250000
 ScaDFX=  0.750000  0.750000  1.000000  1.000000 ScalE2=  1.000000  1.000000
 IRadAn=      5 IRanWt=     -1 IRanGd=            0 ICorTp=0 IEmpDi=  4
 NAtoms=   12 NActive=   12 NUniq=   12 SFac= 1.00D+00 NAtFMM=   60 NAOKFM=F Big=F
 Integral buffers will be    131072 words long.
 Raffenetti 2 integral format.
 Two-electron integral symmetry is turned off.
 Leave Link  301 at Thu Jan 30 14:30:59 2025, MaxMem=   104857600 cpu:               0.0 elap:               0.0
 (Enter /sw/cluster/pub/apps//g16/l302.exe)
 NPDir=0 NMtPBC=     1 NCelOv=     1 NCel=       1 NClECP=     1 NCelD=      1
         NCelK=      1 NCelE2=     1 NClLst=     1 CellRange=     0.0.
 One-electron integrals computed using PRISM.
 NBasis=   264 RedAO= T EigKep=  1.47D-06  NBF=   264
 NBsUse=   264 1.00D-06 EigRej= -1.00D+00 NBFU=   264
 Precomputing XC quadrature grid using
 IXCGrd= 4 IRadAn=           5 IRanWt=          -1 IRanGd=           0 AccXCQ= 0.00D+00.
 Generated NRdTot=       0 NPtTot=           0 NUsed=           0 NTot=          32
 NSgBfM=   275   275   275   275   275 MxSgAt=    12 MxSgA2=    12.
 Leave Link  302 at Thu Jan 30 14:30:59 2025, MaxMem=   104857600 cpu:               0.1 elap:               0.1
 (Enter /sw/cluster/pub/apps//g16/l303.exe)
 DipDrv:  MaxL=1.
 Leave Link  303 at Thu Jan 30 14:30:59 2025, MaxMem=   104857600 cpu:               0.0 elap:               0.0
 (Enter /sw/cluster/pub/apps//g16/l401.exe)
 Initial guess from the checkpoint file:  "HFB-CAT.chk"
 B after Tr=    -0.000000   -0.000000   -0.000000
         Rot=    1.000000   -0.000000    0.000000    0.000000 Ang=   0.00 deg.
 Guess basis will be translated and rotated to current coordinates.
 JPrj=2 DoOrth=T DoCkMO=T.
 Initial guess <Sx>= 0.0000 <Sy>= 0.0000 <Sz>= 0.5000 <S**2>= 0.7688 S= 0.5093
 Generating alternative initial guess.
 ExpMin= 4.38D-02 ExpMax= 1.14D+04 ExpMxC= 1.72D+03 IAcc=2 IRadAn=         4 AccDes= 0.00D+00
 Harris functional with IExCor= 1009 and IRadAn=       4 diagonalized for initial guess.
 HarFok:  IExCor= 1009 AccDes= 0.00D+00 IRadAn=         4 IDoV= 1 UseB2=F ITyADJ=14
 ICtDFT=  3500011 ScaDFX=  1.000000  1.000000  1.000000  1.000000
 FoFCou: FMM=F IPFlag=           0 FMFlag=      100000 FMFlg1=           0
         NFxFlg=           0 DoJE=T BraDBF=F KetDBF=T FulRan=T
         wScrn=  0.000000 ICntrl=       500 IOpCl=  0 I1Cent=   200000004 NGrid=           0
         NMat0=    1 NMatS0=      1 NMatT0=    0 NMatD0=    1 NMtDS0=    0 NMtDT0=    0
 Symmetry not used in FoFCou.
 Harris En= -826.763041074510    
 Leave Link  401 at Thu Jan 30 14:31:00 2025, MaxMem=   104857600 cpu:               0.6 elap:               0.6
 (Enter /sw/cluster/pub/apps//g16/l502.exe)
 Two-electron integral symmetry not used.
 UHF open shell SCF:
 Using DIIS extrapolation, IDIIS=  1040.
 NGot=   104857600 LenX=   104701692 LenY=   104625075
 Requested convergence on RMS density matrix=1.00D-08 within 128 cycles.
 Requested convergence on MAX density matrix=1.00D-06.
 Requested convergence on             energy=1.00D-06.
 No special actions if energy rises.
 Fock matrices will be formed incrementally for  20 cycles.

 Cycle   1  Pass 1  IDiag  1:
 FoFJK:  IHMeth= 1 ICntrl=       0 DoSepK=F KAlg= 0 I1Cent=           0 FoldK=F
 IRaf= 900000000 NMat=       1 IRICut=       1 DoRegI=T DoRafI=F ISym2E= 0 IDoP0=0 IntGTp=1.
 FoFCou: FMM=F IPFlag=           0 FMFlag=      100000 FMFlg1=           0
         NFxFlg=           0 DoJE=F BraDBF=F KetDBF=F FulRan=T
         wScrn=  0.000000 ICntrl=         0 IOpCl=  1 I1Cent=           0 NGrid=           0
         NMat0=    1 NMatS0=      1 NMatT0=    0 NMatD0=    1 NMtDS0=    0 NMtDT0=    0
 Symmetry not used in FoFCou.
 E= -826.661416008263    
 DIIS: error= 1.06D-02 at cycle   1 NSaved=   1.
 NSaved= 1 IEnMin= 1 EnMin= -826.661416008263     IErMin= 1 ErrMin= 1.06D-02
 ErrMax= 1.06D-02  0.00D+00 EMaxC= 1.00D-01 BMatC= 6.94D-02 BMatP= 6.94D-02
 IDIUse=3 WtCom= 8.94D-01 WtEn= 1.06D-01
 Coeff-Com:  0.100D+01
 Coeff-En:   0.100D+01
 Coeff:      0.100D+01
 Recover alternate guess density for next cycle.
 RMSDP=2.47D-02 MaxDP=9.79D-01              OVMax= 0.00D+00

 Cycle   2  Pass 1  IDiag  1:
 RMSU=  1.61D-02    CP:  7.28D-01
 E= -826.631847085661     Delta-E=        0.029568922602 Rises=F Damp=F
 Switch densities from cycles 1 and 2 for lowest energy.
 DIIS: error= 1.92D-02 at cycle   2 NSaved=   2.
 NSaved= 2 IEnMin= 1 EnMin= -826.661416008263     IErMin= 1 ErrMin= 1.06D-02
 ErrMax= 1.92D-02  0.00D+00 EMaxC= 1.00D+00 BMatC= 3.83D-01 BMatP= 6.94D-02
 IDIUse=1 WtCom= 1.00D+00 WtEn= 0.00D+00
 Coeff-Com:  0.834D+00 0.166D+00
 Coeff:      0.834D+00 0.166D+00
 Gap=     0.240 Goal=   None    Shift=    0.000
 Gap=     0.077 Goal=   None    Shift=    0.000
 RMSDP=7.74D-03 MaxDP=3.47D-01 DE= 2.96D-02 OVMax= 6.61D-02

 Cycle   3  Pass 1  IDiag  1:
 RMSU=  4.81D-03    CP:  1.01D+00  3.75D-01
 E= -826.680825159352     Delta-E=       -0.048978073691 Rises=F Damp=F
 DIIS: error= 4.59D-03 at cycle   3 NSaved=   3.
 NSaved= 3 IEnMin= 3 EnMin= -826.680825159352     IErMin= 3 ErrMin= 4.59D-03
 ErrMax= 4.59D-03  0.00D+00 EMaxC= 1.00D+00 BMatC= 9.78D-03 BMatP= 6.94D-02
 IDIUse=1 WtCom= 1.00D+00 WtEn= 0.00D+00
 Coeff-Com:  0.138D+00 0.742D-01 0.788D+00
 Coeff:      0.138D+00 0.742D-01 0.788D+00
 Gap=     0.226 Goal=   None    Shift=    0.000
 Gap=     0.075 Goal=   None    Shift=    0.000
 RMSDP=3.67D-03 MaxDP=1.52D-01 DE=-4.90D-02 OVMax= 2.56D-02

 Cycle   4  Pass 1  IDiag  1:
 RMSU=  7.10D-04    CP:  9.63D-01  4.65D-01  9.17D-01
 E= -826.681245992806     Delta-E=       -0.000420833454 Rises=F Damp=F
 DIIS: error= 4.43D-03 at cycle   4 NSaved=   4.
 NSaved= 4 IEnMin= 4 EnMin= -826.681245992806     IErMin= 4 ErrMin= 4.43D-03
 ErrMax= 4.43D-03  0.00D+00 EMaxC= 1.00D+00 BMatC= 8.30D-03 BMatP= 9.78D-03
 IDIUse=1 WtCom= 1.00D+00 WtEn= 0.00D+00
 Coeff-Com:  0.239D-01 0.195D-01 0.489D+00 0.467D+00
 Coeff:      0.239D-01 0.195D-01 0.489D+00 0.467D+00
 Gap=     0.226 Goal=   None    Shift=    0.000
 Gap=     0.077 Goal=   None    Shift=    0.000
 RMSDP=7.06D-04 MaxDP=2.49D-02 DE=-4.21D-04 OVMax= 1.21D-02

 Cycle   5  Pass 1  IDiag  1:
 RMSU=  1.63D-04    CP:  9.71D-01  4.47D-01  9.41D-01  7.18D-01
 E= -826.682600633241     Delta-E=       -0.001354640436 Rises=F Damp=F
 DIIS: error= 6.76D-04 at cycle   5 NSaved=   5.
 NSaved= 5 IEnMin= 5 EnMin= -826.682600633241     IErMin= 5 ErrMin= 6.76D-04
 ErrMax= 6.76D-04  0.00D+00 EMaxC= 1.00D+00 BMatC= 2.57D-04 BMatP= 8.30D-03
 IDIUse=1 WtCom= 1.00D+00 WtEn= 0.00D+00
 Coeff-Com: -0.967D-02 0.220D-02 0.131D+00 0.192D+00 0.684D+00
 Coeff:     -0.967D-02 0.220D-02 0.131D+00 0.192D+00 0.684D+00
 Gap=     0.225 Goal=   None    Shift=    0.000
 Gap=     0.077 Goal=   None    Shift=    0.000
 RMSDP=2.71D-04 MaxDP=1.14D-02 DE=-1.35D-03 OVMax= 1.39D-03

 Cycle   6  Pass 1  IDiag  1:
 RMSU=  5.58D-05    CP:  9.74D-01  4.41D-01  9.55D-01  7.22D-01  9.41D-01
 E= -826.682636296192     Delta-E=       -0.000035662951 Rises=F Damp=F
 DIIS: error= 1.24D-04 at cycle   6 NSaved=   6.
 NSaved= 6 IEnMin= 6 EnMin= -826.682636296192     IErMin= 6 ErrMin= 1.24D-04
 ErrMax= 1.24D-04  0.00D+00 EMaxC= 1.00D+00 BMatC= 4.66D-06 BMatP= 2.57D-04
 IDIUse=1 WtCom= 1.00D+00 WtEn= 0.00D+00
 Coeff-Com: -0.260D-02-0.256D-03 0.223D-01 0.392D-01 0.178D+00 0.763D+00
 Coeff:     -0.260D-02-0.256D-03 0.223D-01 0.392D-01 0.178D+00 0.763D+00
 Gap=     0.225 Goal=   None    Shift=    0.000
 Gap=     0.077 Goal=   None    Shift=    0.000
 RMSDP=1.67D-05 MaxDP=6.42D-04 DE=-3.57D-05 OVMax= 6.90D-04

 Cycle   7  Pass 1  IDiag  1:
 RMSU=  1.04D-05    CP:  9.74D-01  4.40D-01  9.56D-01  7.25D-01  9.41D-01
                    CP:  9.51D-01
 E= -826.682637270655     Delta-E=       -0.000000974463 Rises=F Damp=F
 DIIS: error= 9.07D-05 at cycle   7 NSaved=   7.
 NSaved= 7 IEnMin= 7 EnMin= -826.682637270655     IErMin= 7 ErrMin= 9.07D-05
 ErrMax= 9.07D-05  0.00D+00 EMaxC= 1.00D+00 BMatC= 1.66D-06 BMatP= 4.66D-06
 IDIUse=1 WtCom= 1.00D+00 WtEn= 0.00D+00
 Coeff-Com: -0.101D-03-0.488D-03-0.170D-02-0.747D-03 0.180D-01 0.375D+00
 Coeff-Com:  0.610D+00
 Coeff:     -0.101D-03-0.488D-03-0.170D-02-0.747D-03 0.180D-01 0.375D+00
 Coeff:      0.610D+00
 Gap=     0.225 Goal=   None    Shift=    0.000
 Gap=     0.077 Goal=   None    Shift=    0.000
 RMSDP=9.32D-06 MaxDP=4.94D-04 DE=-9.74D-07 OVMax= 3.40D-04

 Cycle   8  Pass 1  IDiag  1:
 RMSU=  4.22D-06    CP:  9.74D-01  4.40D-01  9.56D-01  7.24D-01  9.64D-01
                    CP:  1.01D+00  5.89D-01
 E= -826.682637724138     Delta-E=       -0.000000453483 Rises=F Damp=F
 DIIS: error= 2.49D-05 at cycle   8 NSaved=   8.
 NSaved= 8 IEnMin= 8 EnMin= -826.682637724138     IErMin= 8 ErrMin= 2.49D-05
 ErrMax= 2.49D-05  0.00D+00 EMaxC= 1.00D+00 BMatC= 1.13D-07 BMatP= 1.66D-06
 IDIUse=1 WtCom= 1.00D+00 WtEn= 0.00D+00
 Coeff-Com:  0.357D-03 0.329D-04-0.406D-02-0.780D-02-0.280D-01-0.760D-01
 Coeff-Com:  0.748D-01 0.104D+01
 Coeff:      0.357D-03 0.329D-04-0.406D-02-0.780D-02-0.280D-01-0.760D-01
 Coeff:      0.748D-01 0.104D+01
 Gap=     0.225 Goal=   None    Shift=    0.000
 Gap=     0.077 Goal=   None    Shift=    0.000
 RMSDP=4.44D-06 MaxDP=1.98D-04 DE=-4.53D-07 OVMax= 1.87D-04

 Cycle   9  Pass 1  IDiag  1:
 RMSU=  1.45D-06    CP:  9.74D-01  4.40D-01  9.56D-01  7.24D-01  9.64D-01
                    CP:  1.01D+00  7.14D-01  1.25D+00
 E= -826.682637808206     Delta-E=       -0.000000084068 Rises=F Damp=F
 DIIS: error= 9.50D-06 at cycle   9 NSaved=   9.
 NSaved= 9 IEnMin= 9 EnMin= -826.682637808206     IErMin= 9 ErrMin= 9.50D-06
 ErrMax= 9.50D-06  0.00D+00 EMaxC= 1.00D+00 BMatC= 2.80D-08 BMatP= 1.13D-07
 IDIUse=1 WtCom= 1.00D+00 WtEn= 0.00D+00
 Coeff-Com:  0.144D-03 0.999D-04-0.123D-02-0.259D-02-0.129D-01-0.795D-01
 Coeff-Com: -0.656D-01 0.375D+00 0.786D+00
 Coeff:      0.144D-03 0.999D-04-0.123D-02-0.259D-02-0.129D-01-0.795D-01
 Coeff:     -0.656D-01 0.375D+00 0.786D+00
 Gap=     0.225 Goal=   None    Shift=    0.000
 Gap=     0.077 Goal=   None    Shift=    0.000
 RMSDP=1.27D-06 MaxDP=5.63D-05 DE=-8.41D-08 OVMax= 7.44D-05

 Cycle  10  Pass 1  IDiag  1:
 RMSU=  6.29D-07    CP:  9.74D-01  4.40D-01  9.56D-01  7.24D-01  9.65D-01
                    CP:  1.00D+00  7.15D-01  1.42D+00  1.11D+00
 E= -826.682637819999     Delta-E=       -0.000000011793 Rises=F Damp=F
 DIIS: error= 5.92D-06 at cycle  10 NSaved=  10.
 NSaved=10 IEnMin=10 EnMin= -826.682637819999     IErMin=10 ErrMin= 5.92D-06
 ErrMax= 5.92D-06  0.00D+00 EMaxC= 1.00D+00 BMatC= 1.12D-08 BMatP= 2.80D-08
 IDIUse=1 WtCom= 1.00D+00 WtEn= 0.00D+00
 Coeff-Com:  0.451D-05 0.933D-05 0.413D-03 0.658D-03 0.437D-03-0.330D-01
 Coeff-Com: -0.633D-01-0.220D-01 0.427D+00 0.690D+00
 Coeff:      0.451D-05 0.933D-05 0.413D-03 0.658D-03 0.437D-03-0.330D-01
 Coeff:     -0.633D-01-0.220D-01 0.427D+00 0.690D+00
 Gap=     0.225 Goal=   None    Shift=    0.000
 Gap=     0.077 Goal=   None    Shift=    0.000
 RMSDP=5.91D-07 MaxDP=2.11D-05 DE=-1.18D-08 OVMax= 3.38D-05

 Cycle  11  Pass 1  IDiag  1:
 RMSU=  2.22D-07    CP:  9.74D-01  4.40D-01  9.56D-01  7.24D-01  9.65D-01
                    CP:  1.00D+00  7.27D-01  1.47D+00  1.25D+00  7.16D-01
 E= -826.682637822768     Delta-E=       -0.000000002769 Rises=F Damp=F
 DIIS: error= 6.28D-07 at cycle  11 NSaved=  11.
 NSaved=11 IEnMin=11 EnMin= -826.682637822768     IErMin=11 ErrMin= 6.28D-07
 ErrMax= 6.28D-07  0.00D+00 EMaxC= 1.00D+00 BMatC= 2.08D-10 BMatP= 1.12D-08
 IDIUse=1 WtCom= 1.00D+00 WtEn= 0.00D+00
 Coeff-Com: -0.985D-05-0.791D-06 0.155D-03 0.303D-03 0.110D-02 0.197D-02
 Coeff-Com: -0.496D-02-0.339D-01 0.387D-02 0.127D+00 0.904D+00
 Coeff:     -0.985D-05-0.791D-06 0.155D-03 0.303D-03 0.110D-02 0.197D-02
 Coeff:     -0.496D-02-0.339D-01 0.387D-02 0.127D+00 0.904D+00
 Gap=     0.225 Goal=   None    Shift=    0.000
 Gap=     0.077 Goal=   None    Shift=    0.000
 RMSDP=1.58D-07 MaxDP=6.93D-06 DE=-2.77D-09 OVMax= 3.66D-06

 Cycle  12  Pass 1  IDiag  1:
 RMSU=  4.67D-08    CP:  9.74D-01  4.40D-01  9.56D-01  7.24D-01  9.65D-01
                    CP:  1.00D+00  7.28D-01  1.47D+00  1.26D+00  7.63D-01
                    CP:  1.12D+00
 E= -826.682637822826     Delta-E=       -0.000000000058 Rises=F Damp=F
 DIIS: error= 1.22D-07 at cycle  12 NSaved=  12.
 NSaved=12 IEnMin=12 EnMin= -826.682637822826     IErMin=12 ErrMin= 1.22D-07
 ErrMax= 1.22D-07  0.00D+00 EMaxC= 1.00D+00 BMatC= 5.52D-12 BMatP= 2.08D-10
 IDIUse=1 WtCom= 1.00D+00 WtEn= 0.00D+00
 Coeff-Com:  0.118D-05-0.555D-06-0.437D-04-0.797D-04-0.225D-03 0.113D-02
 Coeff-Com:  0.346D-02 0.660D-02-0.163D-01-0.530D-01-0.133D+00 0.119D+01
 Coeff:      0.118D-05-0.555D-06-0.437D-04-0.797D-04-0.225D-03 0.113D-02
 Coeff:      0.346D-02 0.660D-02-0.163D-01-0.530D-01-0.133D+00 0.119D+01
 Gap=     0.225 Goal=   None    Shift=    0.000
 Gap=     0.077 Goal=   None    Shift=    0.000
 RMSDP=2.51D-08 MaxDP=1.69D-06 DE=-5.78D-11 OVMax= 6.69D-07

 Cycle  13  Pass 1  IDiag  1:
 RMSU=  1.36D-08    CP:  9.74D-01  4.40D-01  9.56D-01  7.24D-01  9.65D-01
                    CP:  1.00D+00  7.28D-01  1.47D+00  1.27D+00  7.67D-01
                    CP:  1.18D+00  1.19D+00
 E= -826.682637822831     Delta-E=       -0.000000000005 Rises=F Damp=F
 DIIS: error= 3.11D-08 at cycle  13 NSaved=  13.
 NSaved=13 IEnMin=13 EnMin= -826.682637822831     IErMin=13 ErrMin= 3.11D-08
 ErrMax= 3.11D-08  0.00D+00 EMaxC= 1.00D+00 BMatC= 2.46D-13 BMatP= 5.52D-12
 IDIUse=1 WtCom= 1.00D+00 WtEn= 0.00D+00
 Coeff-Com:  0.300D-06 0.160D-06-0.376D-05-0.766D-05-0.283D-04-0.136D-03
 Coeff-Com:  0.185D-03 0.117D-02 0.284D-03-0.323D-02-0.350D-01-0.962D-01
 Coeff-Com:  0.113D+01
 Coeff:      0.300D-06 0.160D-06-0.376D-05-0.766D-05-0.283D-04-0.136D-03
 Coeff:      0.185D-03 0.117D-02 0.284D-03-0.323D-02-0.350D-01-0.962D-01
 Coeff:      0.113D+01
 Gap=     0.225 Goal=   None    Shift=    0.000
 Gap=     0.077 Goal=   None    Shift=    0.000
 RMSDP=6.07D-09 MaxDP=4.07D-07 DE=-5.00D-12 OVMax= 1.53D-07

 SCF Done:  E(UPBE1PBE) =  -826.682637823     A.U. after   13 cycles
            NFock= 13  Conv=0.61D-08     -V/T= 2.0026
 <Sx>= 0.0000 <Sy>= 0.0000 <Sz>= 0.5000 <S**2>= 0.7666 S= 0.5082
 <L.S>=  0.00000000000    
 KE= 8.245726771587D+02 PE=-3.414684427383D+03 EE= 1.025706499789D+03
 Annihilation of the first spin contaminant:
 S**2 before annihilation     0.7666,   after     0.7502
 Leave Link  502 at Thu Jan 30 14:32:15 2025, MaxMem=   104857600 cpu:              75.6 elap:              75.7
 (Enter /sw/cluster/pub/apps//g16/l701.exe)
 ... and contract with generalized density number  0.
 Compute integral first derivatives.
 Leave Link  701 at Thu Jan 30 14:32:16 2025, MaxMem=   104857600 cpu:               0.0 elap:               0.1
 (Enter /sw/cluster/pub/apps//g16/l702.exe)
 L702 exits ... SP integral derivatives will be done elsewhere.
[...]
 Internal  Forces:  Max     0.000087774 RMS     0.000033741
 Search for a local minimum.
 Step number   1 out of a maximum of    2
 All quantities printed in internal units (Hartrees-Bohrs-Radians)
 Second derivative matrix not updated -- analytic derivatives used.
 ITU=  0
     Eigenvalues ---   -0.02990   0.00329   0.01539   0.01686   0.01716
     Eigenvalues ---    0.02452   0.02536   0.02940   0.03027   0.03058
     Eigenvalues ---    0.14278   0.14976   0.18444   0.19433   0.20671
     Eigenvalues ---    0.20690   0.21393   0.22107   0.24796   0.30526
     Eigenvalues ---    0.36511   0.39373   0.40480   0.48588   0.52951
     Eigenvalues ---    0.54203   0.56255   0.56512   0.56994   0.59686
 Eigenvalue     1 is  -2.99D-02 should be greater than     0.000000 Eigenvector:
                          R10       R4        R2        R6        A11
   1                    0.35398   0.35398  -0.35398  -0.35398   0.19650
                          A15       A6        A3        A13       A10
   1                   -0.19650  -0.19650   0.19650   0.19638  -0.19638
 Angle between quadratic step and forces=  18.16 degrees.
 Linear search not attempted -- first point.
 Iteration  1 RMS(Cart)=  0.00012508 RMS(Int)=  0.00000002
 Iteration  2 RMS(Cart)=  0.00000003 RMS(Int)=  0.00000000
 ITry= 1 IFail=0 DXMaxC= 4.05D-04 DCOld= 1.00D+10 DXMaxT= 3.00D-01 DXLimC= 3.00D+00 Rises=F
 Variable       Old X    -DE/DX   Delta X   Delta X   Delta X     New X
                                 (Linear)    (Quad)   (Total)
    R1        2.73366  -0.00009   0.00000  -0.00028  -0.00028   2.73338
    R2        2.62144   0.00002   0.00000   0.00008   0.00008   2.62152
    R3        2.42841   0.00002   0.00000   0.00009   0.00009   2.42850
    R4        2.62144   0.00002   0.00000   0.00008   0.00008   2.62152
    R5        2.42841   0.00002   0.00000   0.00009   0.00009   2.42850
    R6        2.62144   0.00002   0.00000   0.00008   0.00008   2.62152
    R7        2.45903  -0.00009   0.00000  -0.00026  -0.00026   2.45877
    R8        2.73366  -0.00009   0.00000  -0.00028  -0.00028   2.73338
    R9        2.42841   0.00002   0.00000   0.00009   0.00009   2.42850
   R10        2.62144   0.00002   0.00000   0.00008   0.00008   2.62152
   R11        2.42841   0.00002   0.00000   0.00009   0.00009   2.42850
   R12        2.45903  -0.00009   0.00000  -0.00026  -0.00026   2.45877
    A1        2.11603   0.00004   0.00000   0.00022   0.00022   2.11625
    A2        2.05168   0.00000   0.00000  -0.00004  -0.00004   2.05164
    A3        2.11548  -0.00004   0.00000  -0.00019  -0.00019   2.11529
    A4        2.11603   0.00004   0.00000   0.00022   0.00022   2.11625
    A5        2.05168   0.00000   0.00000  -0.00004  -0.00004   2.05164
    A6        2.11548  -0.00004   0.00000  -0.00019  -0.00019   2.11529
    A7        2.05113  -0.00007   0.00000  -0.00045  -0.00045   2.05068
    A8        2.11603   0.00004   0.00000   0.00022   0.00022   2.11625
    A9        2.11603   0.00004   0.00000   0.00022   0.00022   2.11625
   A10        2.11603   0.00004   0.00000   0.00022   0.00022   2.11625
   A11        2.11548  -0.00004   0.00000  -0.00019  -0.00019   2.11529
   A12        2.05168   0.00000   0.00000  -0.00004  -0.00004   2.05164
   A13        2.11603   0.00004   0.00000   0.00022   0.00022   2.11625
   A14        2.05168   0.00000   0.00000  -0.00004  -0.00004   2.05164
   A15        2.11548  -0.00004   0.00000  -0.00019  -0.00019   2.11529
   A16        2.05113  -0.00007   0.00000  -0.00045  -0.00045   2.05068
   A17        2.11603   0.00004   0.00000   0.00022   0.00022   2.11625
   A18        2.11603   0.00004   0.00000   0.00022   0.00022   2.11625
    D1       -0.00000   0.00000   0.00000   0.00000   0.00000   0.00000
    D2        3.14159  -0.00000   0.00000  -0.00000   0.00000   3.14159
    D3        3.14159  -0.00000   0.00000  -0.00000   0.00000   3.14159
    D4        0.00000  -0.00000   0.00000  -0.00000  -0.00000   0.00000
    D5       -0.00000  -0.00000   0.00000   0.00000   0.00000   0.00000
    D6        3.14159   0.00000   0.00000   0.00000   0.00000   3.14159
    D7        3.14159   0.00000   0.00000   0.00000   0.00000   3.14159
    D8       -0.00000   0.00000   0.00000   0.00000   0.00000   0.00000
    D9        0.00000  -0.00000   0.00000  -0.00000  -0.00000   0.00000
   D10        3.14159  -0.00000   0.00000  -0.00000   0.00000   3.14159
   D11        3.14159   0.00000   0.00000   0.00000   0.00000   3.14159
   D12       -0.00000   0.00000   0.00000   0.00000   0.00000   0.00000
   D13       -0.00000  -0.00000   0.00000   0.00000   0.00000   0.00000
   D14        3.14159   0.00000   0.00000   0.00000   0.00000   3.14159
   D15        3.14159  -0.00000   0.00000  -0.00000   0.00000   3.14159
   D16       -0.00000   0.00000   0.00000   0.00000   0.00000   0.00000
   D17       -0.00000   0.00000   0.00000   0.00000   0.00000   0.00000
   D18        3.14159  -0.00000   0.00000  -0.00000   0.00000   3.14159
   D19        3.14159   0.00000   0.00000  -0.00000   0.00000   3.14159
   D20        0.00000  -0.00000   0.00000  -0.00000  -0.00000   0.00000
   D21        0.00000  -0.00000   0.00000  -0.00000  -0.00000   0.00000
   D22        3.14159  -0.00000   0.00000  -0.00000   0.00000   3.14159
   D23        3.14159   0.00000   0.00000   0.00000   0.00000   3.14159
   D24       -0.00000   0.00000   0.00000   0.00000   0.00000   0.00000
         Item               Value     Threshold  Converged?
 Maximum Force            0.000088     0.000450     YES
 RMS     Force            0.000034     0.000300     YES
 Maximum Displacement     0.000405     0.001800     YES
 RMS     Displacement     0.000125     0.001200     YES
 Predicted change in Energy=-1.352848D-07
 Optimization completed.
    -- Stationary point found.
                           ----------------------------
                           !   Optimized Parameters   !
                           ! (Angstroms and Degrees)  !
 --------------------------                            --------------------------
 ! Name  Definition              Value          Derivative Info.                !
 --------------------------------------------------------------------------------
 ! R1    R(1,2)                  1.4466         -DE/DX =   -0.0001              !
 ! R2    R(1,6)                  1.3872         -DE/DX =    0.0                 !
 ! R3    R(1,7)                  1.2851         -DE/DX =    0.0                 !
 ! R4    R(2,3)                  1.3872         -DE/DX =    0.0                 !
 ! R5    R(2,8)                  1.2851         -DE/DX =    0.0                 !
 ! R6    R(3,4)                  1.3872         -DE/DX =    0.0                 !
 ! R7    R(3,9)                  1.3013         -DE/DX =   -0.0001              !
 ! R8    R(4,5)                  1.4466         -DE/DX =   -0.0001              !
 ! R9    R(4,10)                 1.2851         -DE/DX =    0.0                 !
 ! R10   R(5,6)                  1.3872         -DE/DX =    0.0                 !
 ! R11   R(5,11)                 1.2851         -DE/DX =    0.0                 !
 ! R12   R(6,12)                 1.3013         -DE/DX =   -0.0001              !
 ! A1    A(2,1,6)              121.2394         -DE/DX =    0.0                 !
 ! A2    A(2,1,7)              117.5527         -DE/DX =    0.0                 !
 ! A3    A(6,1,7)              121.2079         -DE/DX =    0.0                 !
 ! A4    A(1,2,3)              121.2394         -DE/DX =    0.0                 !
 ! A5    A(1,2,8)              117.5527         -DE/DX =    0.0                 !
 ! A6    A(3,2,8)              121.2079         -DE/DX =    0.0                 !
 ! A7    A(2,3,4)              117.5212         -DE/DX =   -0.0001              !
 ! A8    A(2,3,9)              121.2394         -DE/DX =    0.0                 !
 ! A9    A(4,3,9)              121.2394         -DE/DX =    0.0                 !
 ! A10   A(3,4,5)              121.2394         -DE/DX =    0.0                 !
 ! A11   A(3,4,10)             121.2079         -DE/DX =    0.0                 !
 ! A12   A(5,4,10)             117.5527         -DE/DX =    0.0                 !
 ! A13   A(4,5,6)              121.2394         -DE/DX =    0.0                 !
 ! A14   A(4,5,11)             117.5527         -DE/DX =    0.0                 !
 ! A15   A(6,5,11)             121.2079         -DE/DX =    0.0                 !
 ! A16   A(1,6,5)              117.5212         -DE/DX =   -0.0001              !
 ! A17   A(1,6,12)             121.2394         -DE/DX =    0.0                 !
 ! A18   A(5,6,12)             121.2394         -DE/DX =    0.0                 !
 ! D1    D(6,1,2,3)              0.0            -DE/DX =    0.0                 !
 ! D2    D(6,1,2,8)            180.0            -DE/DX =    0.0                 !
 ! D3    D(7,1,2,3)            180.0            -DE/DX =    0.0                 !
 ! D4    D(7,1,2,8)              0.0            -DE/DX =    0.0                 !
 ! D5    D(2,1,6,5)              0.0            -DE/DX =    0.0                 !
 ! D6    D(2,1,6,12)           180.0            -DE/DX =    0.0                 !
 ! D7    D(7,1,6,5)            180.0            -DE/DX =    0.0                 !
 ! D8    D(7,1,6,12)             0.0            -DE/DX =    0.0                 !
 ! D9    D(1,2,3,4)              0.0            -DE/DX =    0.0                 !
 ! D10   D(1,2,3,9)            180.0            -DE/DX =    0.0                 !
 ! D11   D(8,2,3,4)            180.0            -DE/DX =    0.0                 !
 ! D12   D(8,2,3,9)              0.0            -DE/DX =    0.0                 !
 ! D13   D(2,3,4,5)              0.0            -DE/DX =    0.0                 !
 ! D14   D(2,3,4,10)           180.0            -DE/DX =    0.0                 !
 ! D15   D(9,3,4,5)            180.0            -DE/DX =    0.0                 !
 ! D16   D(9,3,4,10)             0.0            -DE/DX =    0.0                 !
 ! D17   D(3,4,5,6)              0.0            -DE/DX =    0.0                 !
 ! D18   D(3,4,5,11)           180.0            -DE/DX =    0.0                 !
 ! D19   D(10,4,5,6)           180.0            -DE/DX =    0.0                 !
 ! D20   D(10,4,5,11)            0.0            -DE/DX =    0.0                 !
 ! D21   D(4,5,6,1)              0.0            -DE/DX =    0.0                 !
 ! D22   D(4,5,6,12)           180.0            -DE/DX =    0.0                 !
 ! D23   D(11,5,6,1)           180.0            -DE/DX =    0.0                 !
 ! D24   D(11,5,6,12)            0.0            -DE/DX =    0.0                 !
 --------------------------------------------------------------------------------
 GradGradGradGradGradGradGradGradGradGradGradGradGradGradGradGradGradGrad

 Leave Link  103 at Thu Jan 30 14:46:59 2025, MaxMem=   104857600 cpu:               0.0 elap:               0.0
 (Enter /sw/cluster/pub/apps//g16/l9999.exe)
 Dipole is zero, so no output in dipole orientation.

 ----------------------------------------------------------------------

 Electric dipole moment (input orientation):
 (Debye = 10**-18 statcoulomb cm , SI units = C m)
                  (au)            (Debye)         (10**-30 SI)
   Tot        0.000000D+00      0.000000D+00      0.000000D+00
   x          0.000000D+00      0.000000D+00      0.000000D+00
   y          0.000000D+00      0.000000D+00      0.000000D+00
   z          0.000000D+00      0.000000D+00      0.000000D+00

 Dipole polarizability, Alpha (input orientation).
 (esu units = cm**3 , SI units = C**2 m**2 J**-1)
 Alpha(0;0):
               (au)            (10**-24 esu)      (10**-40 SI)
   iso        0.693253D+02      0.102730D+02      0.114302D+02
   aniso      0.573578D+02      0.849954D+01      0.945702D+01
   xx         0.963382D+02      0.142758D+02      0.158840D+02
   yx         0.000000D+00      0.000000D+00      0.000000D+00
   yy         0.792574D+02      0.117447D+02      0.130678D+02
   zx         0.000000D+00      0.000000D+00      0.000000D+00
   zy         0.000000D+00      0.000000D+00      0.000000D+00
   zz         0.323803D+02      0.479827D+01      0.533879D+01

 ----------------------------------------------------------------------
 1\1\GINC-N11\Freq\UPBE1PBE\6-311++G(d,p)\C6F6(1+,2)\UNKNOWN\30-Jan-202
 5\0\\#P Geom=AllCheck Guess=TCheck SCRF=Check GenChk UPBE1PBE/6-311++G
 (d,p) Freq\\HFB SP\\1,2\C,1.1860707833,0.7232961056,0.0000000026\C,1.1
 860707839,-0.7232961065,-0.0000000018\C,0.0000000006,-1.4427208085,0.0
 000000041\C,-1.1860707833,-0.7232961056,0.0000000016\C,-1.1860707838,0
 .7232961066,-0.0000000055\C,-0.0000000006,1.4427208085,0.0000000012\F,
 2.3253854314,1.3177181977,-0.0000000132\F,2.3253854327,-1.317718198,0.
 0000000049\F,-0.0000000004,-2.7439845705,0.0000000019\F,-2.3253854314,
 -1.3177181977,-0.0000000058\F,-2.3253854327,1.317718198,-0.0000000001\
 F,0.0000000004,2.7439845705,0.0000000101\\Version=ES64L-G16RevA.03\HF=
 -826.6842542\S2=0.766826\S2-1=0.\S2A=0.750165\RMSD=1.866e-09\RMSF=8.56
 1e-05\ZeroPoint=0.0501187\Thermal=0.0596982\Dipole=0.,0.,0.\DipoleDeri
 v=1.7003375,0.5289684,0.,0.6475843,0.4340412,0.,0.,0.,0.2417836,1.7003
 375,-0.5289684,0.,-0.6475842,0.4340413,0.,0.,0.,0.2417836,-0.827322,0.
 ,0.,0.,1.4143665,0.,0.,0.,0.1098611,1.7003375,0.5289684,0.,0.6475842,0
 .4340413,0.,0.,0.,0.2417836,1.7003375,-0.5289684,0.,-0.6475842,0.43404
 12,0.,0.,0.,0.2417836,-0.827322,0.,0.,0.,1.4143666,0.,0.,0.,0.1098611,
 -1.0170522,-0.4273899,0.,-0.5036336,-0.3287827,0.,0.,0.,-0.0265472,-1.
 0170522,0.4273899,0.,0.5036337,-0.3287827,0.,0.,0.,-0.0265472,-0.03924
 86,0.,0.,0.,-1.1248837,0.,0.,0.,-0.0403339,-1.0170522,-0.4273899,0.,-0
 .5036337,-0.3287827,0.,0.,0.,-0.0265472,-1.0170522,0.4273899,0.,0.5036
 336,-0.3287827,0.,0.,0.,-0.0265472,-0.0392486,0.,0.,0.,-1.1248837,0.,0
 .,0.,-0.0403339\Polar=96.3382012,0.0000002,79.2574097,0.,0.,32.3803119
 \Quadrupole=2.3271299,-0.703575,-1.6235548,0.,0.,0.\PG=C02 [X(C6F6)]\N
 Imag=1\\0.74776880,0.04238892,0.64475185,0.,0.,0.09824401,-0.04493084,
 -0.00741581,0.,0.74776880,0.00741583,-0.27520357,0.,-0.04238893,0.6447
 5184,0.,0.,-0.02804273,0.,0.,0.09824401,-0.07077519,0.02969205,0.,-0.1
 5163838,-0.01978545,0.,0.49539905,-0.02875196,-0.01748880,0.,-0.156354
 14,-0.17711656,0.,0.,0.80569666,0.00000001,0.,-0.02438008,0.00000001,0
 .,-0.02410763,0.,-0.00000001,0.07649203,0.03518093,-0.02670226,0.,-0.1
 2558098,-0.04455914,0.,-0.15163839,0.15635414,0.,0.74776881,-0.0267022
 6,-0.02355286,0.,0.04455914,0.08956121,0.,0.01978545,-0.17711657,0.,0.
 04238892,0.64475184,0.,0.,0.02865116,0.,0.,-0.03519538,0.,0.,-0.024107
 63,0.,0.,0.09824401,-0.12558098,0.04455913,0.,0.03518093,0.02670226,0.
 ,-0.07077518,0.02875196,0.,-0.04493085,-0.00741581,0.,0.74776880,-0.04
 455914,0.08956121,0.,0.02670226,-0.02355286,0.,-0.02969206,-0.01748880
 ,0.,0.00741582,-0.27520357,0.,-0.04238893,0.64475184,0.,0.,-0.03519538
 ,0.,0.,0.02865116,0.,0.,-0.02438008,0.,0.,-0.02804273,0.,0.,0.09824401
 ,-0.15163838,0.01978546,0.,-0.07077519,-0.02969206,0.,0.15945449,0.,0.
 ,-0.07077518,0.02969206,0.,-0.15163838,-0.01978545,0.,0.49539904,0.156
 35414,-0.17711657,0.00000002,0.02875195,-0.01748880,-0.00000002,0.,-0.
 00364771,0.00000002,-0.02875196,-0.01748880,-0.00000001,-0.15635414,-0
 .17711656,0.,0.,0.80569666,0.,0.,-0.02410763,0.,0.,-0.02438008,0.,0.,0
 .03059575,0.,0.,-0.02438008,0.,0.,-0.02410763,0.,0.,0.07649203,-0.3558
 6795,-0.16912832,0.,-0.04345177,-0.02731329,0.,0.03880420,0.00392543,0
 .,-0.01619354,0.01665436,0.,0.03324772,0.02046297,0.,-0.11144388,-0.03
 978982,0.,0.43751774,-0.14713811,-0.16368327,0.,-0.06073650,-0.0325381
 5,0.,0.01884153,-0.00339004,0.,-0.00426033,0.00812505,0.,0.01529260,-0
 .00192398,0.,-0.01224369,0.00794347,0.,0.19238815,0.17135198,0.,0.,-0.
 03600710,0.,0.,0.00319624,0.,0.,0.00505166,0.,0.,-0.00456548,0.,0.,0.0
 1089449,0.,0.,0.00819584,0.,0.,0.02064287,-0.04345177,0.02731329,0.,-0
 .35586795,0.16912832,0.,-0.11144388,0.03978982,0.,0.03324772,-0.020462
 97,0.,-0.01619354,-0.01665436,0.,0.03880420,-0.00392543,0.,0.02023551,
 0.00378216,0.,0.43751774,0.06073650,-0.03253815,0.,0.14713811,-0.16368
 327,0.,0.01224369,0.00794347,0.,-0.01529260,-0.00192398,0.,0.00426033,
 0.00812505,0.,-0.01884153,-0.00339004,0.,-0.00378216,0.00408695,0.,-0.
 19238815,0.17135198,0.,0.,0.00319624,0.,0.,-0.03600710,0.,0.,0.0081958
 4,0.,0.,0.01089449,0.,0.,-0.00456548,0.,0.,0.00505166,0.,0.,-0.0018773
 7,0.,0.,0.02064287,-0.00284566,-0.00090115,0.,-0.00491313,-0.04421731,
 0.,-0.05786432,0.,0.,-0.00491313,0.04421731,0.,-0.00284566,0.00090115,
 0.,-0.00688271,0.,0.,-0.00182272,-0.00304694,0.,0.01064043,-0.00090345
 ,0.,0.06213284,0.00292593,0.00344884,0.,0.00311691,-0.05437976,0.,0.,-
 0.42600814,0.,-0.00311691,-0.05437976,0.,-0.00292593,0.00344884,0.,0.,
 0.00406306,0.,-0.00205815,-0.00230821,0.,-0.00623405,0.01024052,0.,0.,
 0.51484048,0.,0.,0.00823888,0.,0.,0.00307362,0.,0.,-0.03197296,0.,0.,0
 .00307362,0.,0.,0.00823887,0.,0.,-0.00463442,0.,0.,0.00010052,0.,0.,-0
 .00443847,0.,0.,0.02206653,-0.01619354,0.01665435,0.,0.03324772,0.0204
 6297,0.,-0.11144388,-0.03978982,0.,-0.35586796,-0.16912832,0.,-0.04345
 177,-0.02731329,0.,0.03880420,0.00392543,0.,0.00218979,-0.00068776,0.,
 -0.01385552,0.00309456,0.,0.01064043,0.00623405,0.,0.43751774,-0.00426
 033,0.00812505,0.,0.01529260,-0.00192398,0.,-0.01224369,0.00794347,0.,
 -0.14713812,-0.16368327,0.,-0.06073650,-0.03253815,0.,0.01884153,-0.00
 339004,0.,-0.00068776,-0.00075301,0.,-0.00309456,0.00284869,0.,0.00090
 345,0.01024053,0.,0.19238815,0.17135198,0.,0.,-0.00456548,0.,0.,0.0108
 9449,0.,0.,0.00819584,0.,0.,-0.03600710,0.,0.,0.00319625,0.,0.,0.00505
 166,0.,0.,0.00114631,0.,0.,-0.00233952,0.,0.,-0.00443847,0.,0.,0.02064
 287,0.03324772,-0.02046296,0.,-0.01619354,-0.01665436,0.,0.03880419,-0
 .00392543,0.,-0.04345176,0.02731329,0.,-0.35586795,0.16912832,0.,-0.11
 144388,0.03978982,0.,-0.01385552,-0.00309456,0.,0.00218979,0.00068776,
 0.,-0.00182272,0.00205815,0.,0.02023551,0.00378216,0.,0.43751775,-0.01
 529260,-0.00192398,0.,0.00426033,0.00812505,0.,-0.01884153,-0.00339004
 ,0.,0.06073649,-0.03253815,0.,0.14713811,-0.16368327,0.,0.01224369,0.0
 0794347,0.,0.00309456,0.00284869,0.,0.00068776,-0.00075301,0.,0.003046
 94,-0.00230821,0.,-0.00378216,0.00408695,0.,-0.19238815,0.17135198,0.,
 0.,0.01089449,0.,0.,-0.00456548,0.,0.,0.00505166,0.,0.,0.00319625,0.,0
 .,-0.03600710,0.,0.,0.00819584,0.,0.,-0.00233952,0.,0.,0.00114631,0.,0
 .,0.00010052,0.,0.,-0.00187737,0.,0.,0.02064287,-0.00491313,0.04421731
 ,0.,-0.00284565,0.00090115,0.,-0.00688271,0.,0.,-0.00284566,-0.0009011
 5,0.,-0.00491313,-0.04421731,0.,-0.05786432,0.,0.,0.01064043,0.0009034
 5,0.,-0.00182272,0.00304694,0.,0.00049635,0.,0.,-0.00182272,-0.0030469
 4,0.,0.01064043,-0.00090345,0.,0.06213284,-0.00311691,-0.05437976,0.,-
 0.00292593,0.00344884,0.,0.,0.00406307,0.,0.00292593,0.00344884,0.,0.0
 0311691,-0.05437976,0.,0.,-0.42600814,0.,0.00623405,0.01024053,0.,0.00
 205815,-0.00230821,0.,0.,-0.00689818,0.,-0.00205815,-0.00230821,0.,-0.
 00623405,0.01024052,0.,0.,0.51484048,0.,0.,0.00307362,0.,0.,0.00823887
 ,0.,0.,-0.00463442,0.,0.,0.00823888,0.,0.,0.00307362,0.,0.,-0.03197296
 ,0.,0.,-0.00443847,0.,0.,0.00010052,0.,0.,0.00059177,0.,0.,0.00010052,
 0.,0.,-0.00443847,0.,0.,0.02206653\\0.00002827,0.00018342,0.,0.0000282
 7,-0.00018342,0.,0.,0.00023191,0.,-0.00002827,-0.00018342,0.,-0.000028
 27,0.00018342,0.,0.,-0.00023191,0.,-0.00001279,-0.00002483,0.,-0.00001
 279,0.00002483,0.,0.,-0.00008777,0.,0.00001279,0.00002483,0.,0.0000127
 9,-0.00002483,0.,0.,0.00008777,0.\\\@


 "I COULD HAVE DONE IT IN A MUCH MORE COMPLICATED WAY"
 SAID THE RED QUEEN, IMMENSELY PROUD.

                                      -- LEWIS CARROLL
 Job cpu time:       0 days  0 hours 10 minutes  7.1 seconds.
 Elapsed time:       0 days  0 hours 10 minutes  8.0 seconds.
 File lengths (MBytes):  RWF=    202 Int=      0 D2E=      0 Chk=     10 Scr=      1
 Normal termination of Gaussian 16 at Thu Jan 30 14:46:59 2025.
