 Entering Gaussian System, Link 0=g16
 Initial command:
 /sw/cluster/pub/apps//g16/l1.exe "/data/natrosa/28482/Gau-93650.inp" -scrdir="/data/natrosa/28482/"
 Entering Link 1 = /sw/cluster/pub/apps//g16/l1.exe PID=     93651.
  
 Copyright (c) 1988,1990,1992,1993,1995,1998,2003,2009,2016,
            Gaussian, Inc.  All Rights Reserved.
  
 This is part of the Gaussian(R) 16 program.  It is based on
 the Gaussian(R) 09 system (copyright 2009, Gaussian, Inc.),
 the Gaussian(R) 03 system (copyright 2003, Gaussian, Inc.),
 the Gaussian(R) 98 system (copyright 1998, Gaussian, Inc.),
 the Gaussian(R) 94 system (copyright 1995, Gaussian, Inc.),
 the Gaussian 92(TM) system (copyright 1992, Gaussian, Inc.),
 the Gaussian 90(TM) system (copyright 1990, Gaussian, Inc.),
 the Gaussian 88(TM) system (copyright 1988, Gaussian, Inc.),
 the Gaussian 86(TM) system (copyright 1986, Carnegie Mellon
 University), and the Gaussian 82(TM) system (copyright 1983,
 Carnegie Mellon University). Gaussian is a federally registered
 trademark of Gaussian, Inc.
  
 This software contains proprietary and confidential information,
 including trade secrets, belonging to Gaussian, Inc.
  
 This software is provided under written license and may be
 used, copied, transmitted, or stored only in accord with that
 written license.
  
 The following legend is applicable only to US Government
 contracts under FAR:
  
                    RESTRICTED RIGHTS LEGEND
  
 Use, reproduction and disclosure by the US Government is
 subject to restrictions as set forth in subparagraphs (a)
 and (c) of the Commercial Computer Software - Restricted
 Rights clause in FAR 52.227-19.
  
 Gaussian, Inc.
 340 Quinnipiac St., Bldg. 40, Wallingford CT 06492
  
  
 ---------------------------------------------------------------
 Warning -- This program may not be used in any manner that
 competes with the business of Gaussian, Inc. or will provide
 assistance to any competitor of Gaussian, Inc.  The licensee
 of this program is prohibited from giving any competitor of
 Gaussian, Inc. access to this program.  By using this program,
 the user acknowledges that Gaussian, Inc. is engaged in the
 business of creating and licensing software in the field of
 computational chemistry and represents and warrants to the
 licensee that it is not a competitor of Gaussian, Inc. and that
 it will not use this program in any manner prohibited above.
 ---------------------------------------------------------------
  

 Cite this work as:
 Gaussian 16, Revision A.03,
 M. J. Frisch, G. W. Trucks, H. B. Schlegel, G. E. Scuseria, 
 M. A. Robb, J. R. Cheeseman, G. Scalmani, V. Barone, 
 G. A. Petersson, H. Nakatsuji, X. Li, M. Caricato, A. V. Marenich, 
 J. Bloino, B. G. Janesko, R. Gomperts, B. Mennucci, H. P. Hratchian, 
 J. V. Ortiz, A. F. Izmaylov, J. L. Sonnenberg, D. Williams-Young, 
 F. Ding, F. Lipparini, F. Egidi, J. Goings, B. Peng, A. Petrone, 
 T. Henderson, D. Ranasinghe, V. G. Zakrzewski, J. Gao, N. Rega, 
 G. Zheng, W. Liang, M. Hada, M. Ehara, K. Toyota, R. Fukuda, 
 J. Hasegawa, M. Ishida, T. Nakajima, Y. Honda, O. Kitao, H. Nakai, 
 T. Vreven, K. Throssell, J. A. Montgomery, Jr., J. E. Peralta, 
 F. Ogliaro, M. J. Bearpark, J. J. Heyd, E. N. Brothers, K. N. Kudin, 
 V. N. Staroverov, T. A. Keith, R. Kobayashi, J. Normand, 
 K. Raghavachari, A. P. Rendell, J. C. Burant, S. S. Iyengar, 
 J. Tomasi, M. Cossi, J. M. Millam, M. Klene, C. Adamo, R. Cammi, 
 J. W. Ochterski, R. L. Martin, K. Morokuma, O. Farkas, 
 J. B. Foresman, and D. J. Fox, Gaussian, Inc., Wallingford CT, 2016.
 
 ******************************************
 Gaussian 16:  ES64L-G16RevA.03 25-Dec-2016
                30-Jan-2025 
 ******************************************
 %chk=HFB-ANI.chk
 --------------------------------------------------------
 #p opt freq PBE1PBE/6-311++G(d,p) density=current nosymm
 --------------------------------------------------------
 1/18=20,19=15,26=3,38=1/1,3;
 2/9=110,12=2,15=1,17=6,18=5,40=1/2;
 3/5=4,6=6,7=1111,11=2,25=1,30=1,71=1,74=-13/1,2,3;
 4//1;
 5/5=2,38=5/2;
 6/7=2,8=2,9=2,10=2,22=-1,28=1/1;
 7/30=1/1,2,3,16;
 1/18=20,19=15,26=3/3(2);
 2/9=110,15=1/2;
 99//99;
 2/9=110,15=1/2;
 3/5=4,6=6,7=1111,11=2,25=1,30=1,71=1,74=-13/1,2,3;
 4/5=5,16=3,69=1/1;
 5/5=2,38=5/2;
 7/30=1/1,2,3,16;
 1/18=20,19=15,26=3/3(-5);
 2/9=110,15=1/2;
 6/7=2,8=2,9=2,10=2,19=2,22=-1,28=1/1;
 99/9=1/99;
 Leave Link    1 at Thu Jan 30 14:30:55 2025, MaxMem=           0 cpu:               0.0 elap:               0.0
 (Enter /sw/cluster/pub/apps//g16/l101.exe)
 ------
 HFB SP
 ------
 Symbolic Z-matrix:
 Charge = -1 Multiplicity = 2
 C                     1.23167   0.7111    0. 
 C                     1.23167  -0.7111    0. 
 C                     0.       -1.42221   0. 
 C                    -1.23167  -0.7111    0. 
 C                    -1.23167   0.7111    0. 
 C                     0.        1.42221   0. 
 F                     2.40708   1.38973   0. 
 F                     2.40708  -1.38973   0. 
 F                     0.       -2.77946   0. 
 F                    -2.40708  -1.38973   0. 
 F                    -2.40708   1.38973   0. 
 F                     0.        2.77946   0. 
 
 ITRead=  0  0  0  0  0  0  0  0  0  0  0  0
 MicOpt= -1 -1 -1 -1 -1 -1 -1 -1 -1 -1 -1 -1
 NAtoms=     12 NQM=       12 NQMF=       0 NMMI=      0 NMMIF=      0
                NMic=       0 NMicF=      0.
                    Isotopes and Nuclear Properties:
 (Nuclear quadrupole moments (NQMom) in fm**2, nuclear magnetic moments (NMagM)
  in nuclear magnetons)

  Atom         1           2           3           4           5           6           7           8           9          10
 IAtWgt=          12          12          12          12          12          12          19          19          19          19
 AtmWgt=  12.0000000  12.0000000  12.0000000  12.0000000  12.0000000  12.0000000  18.9984032  18.9984032  18.9984032  18.9984032
 NucSpn=           0           0           0           0           0           0           1           1           1           1
 AtZEff=  -0.0000000  -0.0000000  -0.0000000  -0.0000000  -0.0000000  -0.0000000  -0.0000000  -0.0000000  -0.0000000  -0.0000000
 NQMom=    0.0000000   0.0000000   0.0000000   0.0000000   0.0000000   0.0000000   0.0000000   0.0000000   0.0000000   0.0000000
 NMagM=    0.0000000   0.0000000   0.0000000   0.0000000   0.0000000   0.0000000   2.6288670   2.6288670   2.6288670   2.6288670
 AtZNuc=   6.0000000   6.0000000   6.0000000   6.0000000   6.0000000   6.0000000   9.0000000   9.0000000   9.0000000   9.0000000

  Atom        11          12
 IAtWgt=          19          19
 AtmWgt=  18.9984032  18.9984032
 NucSpn=           1           1
 AtZEff=  -0.0000000  -0.0000000
 NQMom=    0.0000000   0.0000000
 NMagM=    2.6288670   2.6288670
 AtZNuc=   9.0000000   9.0000000
 Leave Link  101 at Thu Jan 30 14:30:55 2025, MaxMem=   104857600 cpu:               0.0 elap:               0.0
 (Enter /sw/cluster/pub/apps//g16/l103.exe)

 GradGradGradGradGradGradGradGradGradGradGradGradGradGradGradGradGradGrad
 Berny optimization.
 Initialization pass.
                           ----------------------------
                           !    Initial Parameters    !
                           ! (Angstroms and Degrees)  !
 --------------------------                            --------------------------
 ! Name  Definition              Value          Derivative Info.                !
 --------------------------------------------------------------------------------
 ! R1    R(1,2)                  1.4222         estimate D2E/DX2                !
 ! R2    R(1,6)                  1.4222         estimate D2E/DX2                !
 ! R3    R(1,7)                  1.3572         estimate D2E/DX2                !
 ! R4    R(2,3)                  1.4222         estimate D2E/DX2                !
 ! R5    R(2,8)                  1.3572         estimate D2E/DX2                !
 ! R6    R(3,4)                  1.4222         estimate D2E/DX2                !
 ! R7    R(3,9)                  1.3572         estimate D2E/DX2                !
 ! R8    R(4,5)                  1.4222         estimate D2E/DX2                !
 ! R9    R(4,10)                 1.3572         estimate D2E/DX2                !
 ! R10   R(5,6)                  1.4222         estimate D2E/DX2                !
 ! R11   R(5,11)                 1.3572         estimate D2E/DX2                !
 ! R12   R(6,12)                 1.3572         estimate D2E/DX2                !
 ! A1    A(2,1,6)              120.0            estimate D2E/DX2                !
 ! A2    A(2,1,7)              120.0            estimate D2E/DX2                !
 ! A3    A(6,1,7)              120.0            estimate D2E/DX2                !
 ! A4    A(1,2,3)              120.0            estimate D2E/DX2                !
 ! A5    A(1,2,8)              120.0            estimate D2E/DX2                !
 ! A6    A(3,2,8)              120.0            estimate D2E/DX2                !
 ! A7    A(2,3,4)              120.0            estimate D2E/DX2                !
 ! A8    A(2,3,9)              120.0            estimate D2E/DX2                !
 ! A9    A(4,3,9)              120.0            estimate D2E/DX2                !
 ! A10   A(3,4,5)              120.0            estimate D2E/DX2                !
 ! A11   A(3,4,10)             120.0            estimate D2E/DX2                !
 ! A12   A(5,4,10)             120.0            estimate D2E/DX2                !
 ! A13   A(4,5,6)              120.0            estimate D2E/DX2                !
 ! A14   A(4,5,11)             120.0            estimate D2E/DX2                !
 ! A15   A(6,5,11)             120.0            estimate D2E/DX2                !
 ! A16   A(1,6,5)              120.0            estimate D2E/DX2                !
 ! A17   A(1,6,12)             120.0            estimate D2E/DX2                !
 ! A18   A(5,6,12)             120.0            estimate D2E/DX2                !
 ! D1    D(6,1,2,3)              0.0            estimate D2E/DX2                !
 ! D2    D(6,1,2,8)            180.0            estimate D2E/DX2                !
 ! D3    D(7,1,2,3)            180.0            estimate D2E/DX2                !
 ! D4    D(7,1,2,8)              0.0            estimate D2E/DX2                !
 ! D5    D(2,1,6,5)              0.0            estimate D2E/DX2                !
 ! D6    D(2,1,6,12)           180.0            estimate D2E/DX2                !
 ! D7    D(7,1,6,5)            180.0            estimate D2E/DX2                !
 ! D8    D(7,1,6,12)             0.0            estimate D2E/DX2                !
 ! D9    D(1,2,3,4)              0.0            estimate D2E/DX2                !
 ! D10   D(1,2,3,9)            180.0            estimate D2E/DX2                !
 ! D11   D(8,2,3,4)            180.0            estimate D2E/DX2                !
 ! D12   D(8,2,3,9)              0.0            estimate D2E/DX2                !
 ! D13   D(2,3,4,5)              0.0            estimate D2E/DX2                !
 ! D14   D(2,3,4,10)           180.0            estimate D2E/DX2                !
 ! D15   D(9,3,4,5)            180.0            estimate D2E/DX2                !
 ! D16   D(9,3,4,10)             0.0            estimate D2E/DX2                !
 ! D17   D(3,4,5,6)              0.0            estimate D2E/DX2                !
 ! D18   D(3,4,5,11)           180.0            estimate D2E/DX2                !
 ! D19   D(10,4,5,6)           180.0            estimate D2E/DX2                !
 ! D20   D(10,4,5,11)            0.0            estimate D2E/DX2                !
 ! D21   D(4,5,6,1)              0.0            estimate D2E/DX2                !
 ! D22   D(4,5,6,12)           180.0            estimate D2E/DX2                !
 ! D23   D(11,5,6,1)           180.0            estimate D2E/DX2                !
 ! D24   D(11,5,6,12)            0.0            estimate D2E/DX2                !
 --------------------------------------------------------------------------------
 Trust Radius=3.00D-01 FncErr=1.00D-07 GrdErr=1.00D-06 EigMax=2.50D+02 EigMin=1.00D-04
 Number of steps in this run=     64 maximum allowed number of steps=    100.
 GradGradGradGradGradGradGradGradGradGradGradGradGradGradGradGradGradGrad

 Leave Link  103 at Thu Jan 30 14:30:55 2025, MaxMem=   104857600 cpu:               0.0 elap:               0.0
 (Enter /sw/cluster/pub/apps//g16/l202.exe)
                          Input orientation:                          
 ---------------------------------------------------------------------
 Center     Atomic      Atomic             Coordinates (Angstroms)
 Number     Number       Type             X           Y           Z
 ---------------------------------------------------------------------
      1          6           0        1.231668    0.711104    0.000000
      2          6           0        1.231668   -0.711104    0.000000
      3          6           0        0.000000   -1.422208    0.000000
      4          6           0       -1.231668   -0.711104    0.000000
      5          6           0       -1.231668    0.711104    0.000000
      6          6           0        0.000000    1.422208    0.000000
      7          9           0        2.407080    1.389728    0.000000
      8          9           0        2.407080   -1.389728    0.000000
      9          9           0        0.000000   -2.779456    0.000000
     10          9           0       -2.407080   -1.389728    0.000000
     11          9           0       -2.407080    1.389728    0.000000
     12          9           0        0.000000    2.779456    0.000000
 ---------------------------------------------------------------------
                    Distance matrix (angstroms):
                    1          2          3          4          5
     1  C    0.000000
     2  C    1.422208   0.000000
     3  C    2.463336   1.422208   0.000000
     4  C    2.844416   2.463336   1.422208   0.000000
     5  C    2.463336   2.844416   2.463336   1.422208   0.000000
     6  C    1.422208   2.463336   2.844416   2.463336   1.422208
     7  F    1.357248   2.407299   3.701489   4.201664   3.701489
     8  F    2.407299   1.357248   2.407299   3.701489   4.201664
     9  F    3.701489   2.407299   1.357249   2.407299   3.701489
    10  F    4.201664   3.701489   2.407299   1.357248   2.407299
    11  F    3.701489   4.201664   3.701489   2.407299   1.357248
    12  F    2.407299   3.701489   4.201664   3.701489   2.407299
                    6          7          8          9         10
     6  C    0.000000
     7  F    2.407299   0.000000
     8  F    3.701489   2.779456   0.000000
     9  F    4.201664   4.814160   2.779456   0.000000
    10  F    3.701489   5.558913   4.814160   2.779456   0.000000
    11  F    2.407299   4.814160   5.558913   4.814160   2.779456
    12  F    1.357249   2.779456   4.814160   5.558913   4.814160
                   11         12
    11  F    0.000000
    12  F    2.779456   0.000000
 Symmetry turned off by external request.
 Stoichiometry    C6F6(1-,2)
 Framework group  D6H[3C2'(FC.CF)]
 Deg. of freedom     2
 Full point group                 D6H     NOp  24
 Rotational constants (GHZ):           0.9849026           0.9849026           0.4924513
 Leave Link  202 at Thu Jan 30 14:30:55 2025, MaxMem=   104857600 cpu:               0.0 elap:               0.0
 (Enter /sw/cluster/pub/apps//g16/l301.exe)
 Standard basis: 6-311++G(d,p) (5D, 7F)
 Ernie: Thresh=  0.10000D-02 Tol=  0.10000D-05 Strict=F.
   264 basis functions,   432 primitive gaussians,   276 cartesian basis functions
    46 alpha electrons       45 beta electrons
       nuclear repulsion energy       718.1613876486 Hartrees.
 IExCor= 1009 DFT=T Ex+Corr=PBE1PBE ExCW=0 ScaHFX=  0.250000
 ScaDFX=  0.750000  0.750000  1.000000  1.000000 ScalE2=  1.000000  1.000000
 IRadAn=      5 IRanWt=     -1 IRanGd=            0 ICorTp=0 IEmpDi=  4
 NAtoms=   12 NActive=   12 NUniq=   12 SFac= 1.00D+00 NAtFMM=   60 NAOKFM=F Big=F
 Integral buffers will be    131072 words long.
 Raffenetti 2 integral format.
 Two-electron integral symmetry is turned off.
 Leave Link  301 at Thu Jan 30 14:30:55 2025, MaxMem=   104857600 cpu:               0.0 elap:               0.0
 (Enter /sw/cluster/pub/apps//g16/l302.exe)
 NPDir=0 NMtPBC=     1 NCelOv=     1 NCel=       1 NClECP=     1 NCelD=      1
         NCelK=      1 NCelE2=     1 NClLst=     1 CellRange=     0.0.
 One-electron integrals computed using PRISM.
 NBasis=   264 RedAO= T EigKep=  1.76D-06  NBF=   264
 NBsUse=   264 1.00D-06 EigRej= -1.00D+00 NBFU=   264
 Precomputing XC quadrature grid using
 IXCGrd= 4 IRadAn=           5 IRanWt=          -1 IRanGd=           0 AccXCQ= 0.00D+00.
 Generated NRdTot=       0 NPtTot=           0 NUsed=           0 NTot=          32
 NSgBfM=   275   275   275   275   275 MxSgAt=    12 MxSgA2=    12.
 Leave Link  302 at Thu Jan 30 14:30:55 2025, MaxMem=   104857600 cpu:               0.1 elap:               0.1
 (Enter /sw/cluster/pub/apps//g16/l303.exe)
 DipDrv:  MaxL=1.
 Leave Link  303 at Thu Jan 30 14:30:55 2025, MaxMem=   104857600 cpu:               0.0 elap:               0.0
 (Enter /sw/cluster/pub/apps//g16/l401.exe)
 ExpMin= 4.38D-02 ExpMax= 1.14D+04 ExpMxC= 1.72D+03 IAcc=3 IRadAn=         5 AccDes= 0.00D+00
 Harris functional with IExCor= 1009 and IRadAn=       5 diagonalized for initial guess.
 HarFok:  IExCor= 1009 AccDes= 0.00D+00 IRadAn=         5 IDoV= 1 UseB2=F ITyADJ=14
 ICtDFT=  3500011 ScaDFX=  1.000000  1.000000  1.000000  1.000000
 FoFCou: FMM=F IPFlag=           0 FMFlag=      100000 FMFlg1=           0
         NFxFlg=           0 DoJE=T BraDBF=F KetDBF=T FulRan=T
         wScrn=  0.000000 ICntrl=       500 IOpCl=  0 I1Cent=   200000004 NGrid=           0
         NMat0=    1 NMatS0=      1 NMatT0=    0 NMatD0=    1 NMtDS0=    0 NMtDT0=    0
 Symmetry not used in FoFCou.
 Harris En= -827.134399702769    
 JPrj=0 DoOrth=F DoCkMO=F.
 Initial guess <Sx>= 0.0000 <Sy>= 0.0000 <Sz>= 0.5000 <S**2>= 0.7500 S= 0.5000
 Leave Link  401 at Thu Jan 30 14:30:57 2025, MaxMem=   104857600 cpu:               1.5 elap:               1.5
 (Enter /sw/cluster/pub/apps//g16/l502.exe)
 Two-electron integral symmetry not used.
 UHF open shell SCF:
 Using DIIS extrapolation, IDIIS=  1040.
 NGot=   104857600 LenX=   104701692 LenY=   104625075
 Requested convergence on RMS density matrix=1.00D-08 within 128 cycles.
 Requested convergence on MAX density matrix=1.00D-06.
 Requested convergence on             energy=1.00D-06.
 No special actions if energy rises.
 Fock matrices will be formed incrementally for  20 cycles.

 Cycle   1  Pass 1  IDiag  1:
 FoFJK:  IHMeth= 1 ICntrl=       0 DoSepK=F KAlg= 0 I1Cent=           0 FoldK=F
 IRaf= 900000000 NMat=       1 IRICut=       1 DoRegI=T DoRafI=F ISym2E= 0 IDoP0=0 IntGTp=1.
 FoFCou: FMM=F IPFlag=           0 FMFlag=      100000 FMFlg1=           0
         NFxFlg=           0 DoJE=F BraDBF=F KetDBF=F FulRan=T
         wScrn=  0.000000 ICntrl=         0 IOpCl=  1 I1Cent=           0 NGrid=           0
         NMat0=    1 NMatS0=      1 NMatT0=    0 NMatD0=    1 NMtDS0=    0 NMtDT0=    0
 Symmetry not used in FoFCou.
 E= -826.960022066748    
 DIIS: error= 2.60D-02 at cycle   1 NSaved=   1.
 NSaved= 1 IEnMin= 1 EnMin= -826.960022066748     IErMin= 1 ErrMin= 2.60D-02
 ErrMax= 2.60D-02  0.00D+00 EMaxC= 1.00D-01 BMatC= 4.83D-01 BMatP= 4.83D-01
 IDIUse=3 WtCom= 7.40D-01 WtEn= 2.60D-01
 Coeff-Com:  0.100D+01
 Coeff-En:   0.100D+01
 Coeff:      0.100D+01
 Gap=     0.078 Goal=   None    Shift=    0.000
 Gap=     0.229 Goal=   None    Shift=    0.000
 GapD=    0.078 DampG=0.500 DampE=0.500 DampFc=0.2500 IDamp=-1.
 Damping current iteration by 2.50D-01
 RMSDP=1.92D-02 MaxDP=8.50D-01              OVMax= 4.09D-01

 Cycle   2  Pass 1  IDiag  1:
 RMSU=  2.65D-03    CP:  1.08D+00
 E= -826.986404283364     Delta-E=       -0.026382216616 Rises=F Damp=T
 DIIS: error= 1.31D-02 at cycle   2 NSaved=   2.
 NSaved= 2 IEnMin= 2 EnMin= -826.986404283364     IErMin= 2 ErrMin= 1.31D-02
 ErrMax= 1.31D-02  0.00D+00 EMaxC= 1.00D-01 BMatC= 1.74D-01 BMatP= 4.83D-01
 IDIUse=3 WtCom= 8.69D-01 WtEn= 1.31D-01
 Coeff-Com: -0.124D+01 0.224D+01
 Coeff-En:   0.000D+00 0.100D+01
 Coeff:     -0.108D+01 0.208D+01
 Gap=     0.083 Goal=   None    Shift=    0.000
 Gap=     0.228 Goal=   None    Shift=    0.000
 RMSDP=1.24D-02 MaxDP=5.85D-01 DE=-2.64D-02 OVMax= 1.55D-01

 Cycle   3  Pass 1  IDiag  1:
 RMSU=  2.42D-03    CP:  1.28D+00  3.00D+00
 E= -827.037283550320     Delta-E=       -0.050879266957 Rises=F Damp=F
 DIIS: error= 2.87D-03 at cycle   3 NSaved=   3.
 NSaved= 3 IEnMin= 3 EnMin= -827.037283550320     IErMin= 3 ErrMin= 2.87D-03
 ErrMax= 2.87D-03  0.00D+00 EMaxC= 1.00D-01 BMatC= 6.34D-03 BMatP= 1.74D-01
 IDIUse=3 WtCom= 9.71D-01 WtEn= 2.87D-02
 Coeff-Com: -0.343D+00 0.563D+00 0.781D+00
 Coeff-En:   0.000D+00 0.000D+00 0.100D+01
 Coeff:     -0.334D+00 0.547D+00 0.787D+00
 Gap=     0.070 Goal=   None    Shift=    0.000
 Gap=     0.226 Goal=   None    Shift=    0.000
 RMSDP=4.10D-04 MaxDP=1.59D-02 DE=-5.09D-02 OVMax= 1.14D-02

 Cycle   4  Pass 1  IDiag  1:
 RMSU=  2.74D-04    CP:  1.27D+00  3.00D+00  9.21D-01
 E= -827.037411930205     Delta-E=       -0.000128379884 Rises=F Damp=F
 DIIS: error= 3.18D-03 at cycle   4 NSaved=   4.
 NSaved= 4 IEnMin= 4 EnMin= -827.037411930205     IErMin= 3 ErrMin= 2.87D-03
 ErrMax= 3.18D-03  0.00D+00 EMaxC= 1.00D-01 BMatC= 4.46D-03 BMatP= 6.34D-03
 IDIUse=3 WtCom= 9.68D-01 WtEn= 3.18D-02
 Coeff-Com: -0.851D-01 0.137D+00 0.470D+00 0.478D+00
 Coeff-En:   0.000D+00 0.000D+00 0.469D+00 0.531D+00
 Coeff:     -0.824D-01 0.133D+00 0.470D+00 0.480D+00
 Gap=     0.073 Goal=   None    Shift=    0.000
 Gap=     0.223 Goal=   None    Shift=    0.000
 RMSDP=1.09D-03 MaxDP=4.80D-02 DE=-1.28D-04 OVMax= 1.56D-02

 Cycle   5  Pass 1  IDiag  1:
 RMSU=  5.21D-04    CP:  1.26D+00  3.00D+00  7.52D-01  1.85D+00
 E= -827.038267731916     Delta-E=       -0.000855801711 Rises=F Damp=F
 DIIS: error= 4.32D-04 at cycle   5 NSaved=   5.
 NSaved= 5 IEnMin= 5 EnMin= -827.038267731916     IErMin= 5 ErrMin= 4.32D-04
 ErrMax= 4.32D-04  0.00D+00 EMaxC= 1.00D-01 BMatC= 1.03D-04 BMatP= 4.46D-03
 IDIUse=3 WtCom= 9.96D-01 WtEn= 4.32D-03
 Coeff-Com:  0.150D-02-0.396D-02 0.110D+00 0.195D+00 0.697D+00
 Coeff-En:   0.000D+00 0.000D+00 0.000D+00 0.000D+00 0.100D+01
 Coeff:      0.149D-02-0.394D-02 0.110D+00 0.194D+00 0.699D+00
 Gap=     0.072 Goal=   None    Shift=    0.000
 Gap=     0.224 Goal=   None    Shift=    0.000
 RMSDP=3.10D-04 MaxDP=1.34D-02 DE=-8.56D-04 OVMax= 2.64D-03

 Cycle   6  Pass 1  IDiag  1:
 RMSU=  7.62D-05    CP:  1.26D+00  3.00D+00  8.02D-01  1.58D+00  7.33D-01
 E= -827.038289433037     Delta-E=       -0.000021701121 Rises=F Damp=F
 DIIS: error= 6.07D-05 at cycle   6 NSaved=   6.
 NSaved= 6 IEnMin= 6 EnMin= -827.038289433037     IErMin= 6 ErrMin= 6.07D-05
 ErrMax= 6.07D-05  0.00D+00 EMaxC= 1.00D-01 BMatC= 1.77D-06 BMatP= 1.03D-04
 IDIUse=1 WtCom= 1.00D+00 WtEn= 0.00D+00
 Coeff-Com:  0.564D-02-0.807D-02-0.470D-02 0.468D-02-0.373D-01 0.104D+01
 Coeff:      0.564D-02-0.807D-02-0.470D-02 0.468D-02-0.373D-01 0.104D+01
 Gap=     0.072 Goal=   None    Shift=    0.000
 Gap=     0.224 Goal=   None    Shift=    0.000
 RMSDP=2.80D-05 MaxDP=8.05D-04 DE=-2.17D-05 OVMax= 2.30D-03

 Cycle   7  Pass 1  IDiag  1:
 RMSU=  1.21D-05    CP:  1.26D+00  3.00D+00  8.00D-01  1.62D+00  7.43D-01
                    CP:  1.27D+00
 E= -827.038290796757     Delta-E=       -0.000001363720 Rises=F Damp=F
 DIIS: error= 2.23D-05 at cycle   7 NSaved=   7.
 NSaved= 7 IEnMin= 7 EnMin= -827.038290796757     IErMin= 7 ErrMin= 2.23D-05
 ErrMax= 2.23D-05  0.00D+00 EMaxC= 1.00D-01 BMatC= 2.90D-07 BMatP= 1.77D-06
 IDIUse=1 WtCom= 1.00D+00 WtEn= 0.00D+00
 Coeff-Com:  0.172D-02-0.223D-02-0.929D-02-0.157D-01-0.960D-01 0.140D+00
 Coeff-Com:  0.981D+00
 Coeff:      0.172D-02-0.223D-02-0.929D-02-0.157D-01-0.960D-01 0.140D+00
 Coeff:      0.981D+00
 Gap=     0.072 Goal=   None    Shift=    0.000
 Gap=     0.224 Goal=   None    Shift=    0.000
 RMSDP=1.57D-05 MaxDP=6.46D-04 DE=-1.36D-06 OVMax= 8.57D-04

 Cycle   8  Pass 1  IDiag  1:
 RMSU=  2.95D-06    CP:  1.26D+00  3.00D+00  8.02D-01  1.62D+00  7.39D-01
                    CP:  1.39D+00  1.50D+00
 E= -827.038290972610     Delta-E=       -0.000000175853 Rises=F Damp=F
 DIIS: error= 3.39D-06 at cycle   8 NSaved=   8.
 NSaved= 8 IEnMin= 8 EnMin= -827.038290972610     IErMin= 8 ErrMin= 3.39D-06
 ErrMax= 3.39D-06  0.00D+00 EMaxC= 1.00D-01 BMatC= 4.45D-09 BMatP= 2.90D-07
 IDIUse=1 WtCom= 1.00D+00 WtEn= 0.00D+00
 Coeff-Com: -0.255D-03 0.370D-03 0.132D-02 0.145D-02 0.113D-01-0.587D-01
 Coeff-Com: -0.137D+00 0.118D+01
 Coeff:     -0.255D-03 0.370D-03 0.132D-02 0.145D-02 0.113D-01-0.587D-01
 Coeff:     -0.137D+00 0.118D+01
 Gap=     0.072 Goal=   None    Shift=    0.000
 Gap=     0.224 Goal=   None    Shift=    0.000
 RMSDP=2.66D-06 MaxDP=1.03D-04 DE=-1.76D-07 OVMax= 1.79D-04

 Cycle   9  Pass 1  IDiag  1:
 RMSU=  3.73D-07    CP:  1.26D+00  3.00D+00  8.02D-01  1.62D+00  7.39D-01
                    CP:  1.40D+00  1.66D+00  1.21D+00
 E= -827.038290977096     Delta-E=       -0.000000004486 Rises=F Damp=F
 DIIS: error= 4.09D-07 at cycle   9 NSaved=   9.
 NSaved= 9 IEnMin= 9 EnMin= -827.038290977096     IErMin= 9 ErrMin= 4.09D-07
 ErrMax= 4.09D-07  0.00D+00 EMaxC= 1.00D-01 BMatC= 7.05D-11 BMatP= 4.45D-09
 IDIUse=1 WtCom= 1.00D+00 WtEn= 0.00D+00
 Coeff-Com:  0.161D-04-0.283D-04-0.740D-04 0.449D-04-0.739D-03 0.107D-01
 Coeff-Com:  0.146D-01-0.259D+00 0.123D+01
 Coeff:      0.161D-04-0.283D-04-0.740D-04 0.449D-04-0.739D-03 0.107D-01
 Coeff:      0.146D-01-0.259D+00 0.123D+01
 Gap=     0.072 Goal=   None    Shift=    0.000
 Gap=     0.224 Goal=   None    Shift=    0.000
 RMSDP=1.95D-07 MaxDP=8.37D-06 DE=-4.49D-09 OVMax= 1.91D-06

 Cycle  10  Pass 1  IDiag  1:
 RMSU=  9.99D-08    CP:  1.26D+00  3.00D+00  8.02D-01  1.62D+00  7.39D-01
                    CP:  1.40D+00  1.66D+00  1.21D+00  1.10D+00
 E= -827.038290977133     Delta-E=       -0.000000000037 Rises=F Damp=F
 DIIS: error= 9.95D-08 at cycle  10 NSaved=  10.
 NSaved=10 IEnMin=10 EnMin= -827.038290977133     IErMin=10 ErrMin= 9.95D-08
 ErrMax= 9.95D-08  0.00D+00 EMaxC= 1.00D-01 BMatC= 4.16D-12 BMatP= 7.05D-11
 IDIUse=1 WtCom= 1.00D+00 WtEn= 0.00D+00
 Coeff-Com:  0.660D-05-0.888D-05-0.301D-04-0.491D-04-0.204D-03 0.415D-03
 Coeff-Com:  0.258D-02-0.663D-02-0.173D+00 0.118D+01
 Coeff:      0.660D-05-0.888D-05-0.301D-04-0.491D-04-0.204D-03 0.415D-03
 Coeff:      0.258D-02-0.663D-02-0.173D+00 0.118D+01
 Gap=     0.072 Goal=   None    Shift=    0.000
 Gap=     0.224 Goal=   None    Shift=    0.000
 RMSDP=6.14D-08 MaxDP=2.51D-06 DE=-3.71D-11 OVMax= 7.50D-07

 Cycle  11  Pass 1  IDiag  1:
 RMSU=  2.42D-08    CP:  1.26D+00  3.00D+00  8.02D-01  1.62D+00  7.39D-01
                    CP:  1.40D+00  1.66D+00  1.21D+00  1.14D+00  1.35D+00
 E= -827.038290977136     Delta-E=       -0.000000000003 Rises=F Damp=F
 DIIS: error= 7.52D-08 at cycle  11 NSaved=  11.
 NSaved=11 IEnMin=11 EnMin= -827.038290977136     IErMin=11 ErrMin= 7.52D-08
 ErrMax= 7.52D-08  0.00D+00 EMaxC= 1.00D-01 BMatC= 3.55D-12 BMatP= 4.16D-12
 IDIUse=1 WtCom= 1.00D+00 WtEn= 0.00D+00
 Coeff-Com:  0.263D-05-0.305D-05-0.124D-04-0.311D-04-0.688D-04-0.543D-03
 Coeff-Com:  0.443D-03 0.151D-01-0.194D+00 0.695D+00 0.484D+00
 Coeff:      0.263D-05-0.305D-05-0.124D-04-0.311D-04-0.688D-04-0.543D-03
 Coeff:      0.443D-03 0.151D-01-0.194D+00 0.695D+00 0.484D+00
 Gap=     0.072 Goal=   None    Shift=    0.000
 Gap=     0.224 Goal=   None    Shift=    0.000
 RMSDP=1.51D-08 MaxDP=7.24D-07 DE=-3.18D-12 OVMax= 2.49D-07

 Cycle  12  Pass 1  IDiag  1:
 RMSU=  8.88D-09    CP:  1.26D+00  3.00D+00  8.02D-01  1.62D+00  7.39D-01
                    CP:  1.40D+00  1.66D+00  1.21D+00  1.15D+00  1.42D+00
                    CP:  6.05D-01
 E= -827.038290977130     Delta-E=        0.000000000006 Rises=F Damp=F
 DIIS: error= 1.59D-08 at cycle  12 NSaved=  12.
 NSaved=12 IEnMin=11 EnMin= -827.038290977136     IErMin=12 ErrMin= 1.59D-08
 ErrMax= 1.59D-08  0.00D+00 EMaxC= 1.00D-01 BMatC= 1.26D-13 BMatP= 3.55D-12
 IDIUse=1 WtCom= 1.00D+00 WtEn= 0.00D+00
 Coeff-Com: -0.854D-06 0.125D-05 0.300D-05 0.454D-05 0.179D-04-0.185D-03
 Coeff-Com: -0.404D-03 0.433D-02-0.672D-02-0.877D-01 0.103D+00 0.988D+00
 Coeff:     -0.854D-06 0.125D-05 0.300D-05 0.454D-05 0.179D-04-0.185D-03
 Coeff:     -0.404D-03 0.433D-02-0.672D-02-0.877D-01 0.103D+00 0.988D+00
 Gap=     0.072 Goal=   None    Shift=    0.000
 Gap=     0.224 Goal=   None    Shift=    0.000
 RMSDP=8.57D-09 MaxDP=4.49D-07 DE= 5.91D-12 OVMax= 9.74D-08

 SCF Done:  E(UPBE1PBE) =  -827.038290977     A.U. after   12 cycles
            NFock= 12  Conv=0.86D-08     -V/T= 2.0032
 <Sx>= 0.0000 <Sy>= 0.0000 <Sz>= 0.5000 <S**2>= 0.7505 S= 0.5002
 <L.S>=  0.00000000000    
 KE= 8.244215585554D+02 PE=-3.410674438946D+03 EE= 1.041053201765D+03
 Annihilation of the first spin contaminant:
 S**2 before annihilation     0.7505,   after     0.7500
 Leave Link  502 at Thu Jan 30 14:32:08 2025, MaxMem=   104857600 cpu:              70.7 elap:              71.1
 (Enter /sw/cluster/pub/apps//g16/l601.exe)
 Copying SCF densities to generalized density rwf, IOpCl= 1 IROHF=0.

 **********************************************************************

            Population analysis using the SCF density.

 **********************************************************************

 Alpha  occ. eigenvalues --  -24.65721 -24.65720 -24.65720 -24.65719 -24.65719
 Alpha  occ. eigenvalues --  -24.65719 -10.20206 -10.20183 -10.20183 -10.20134
 Alpha  occ. eigenvalues --  -10.20134 -10.20110  -1.14768  -1.14189  -1.14189
 Alpha  occ. eigenvalues --   -1.13082  -1.13082  -1.12540  -0.76748  -0.65468
 Alpha  occ. eigenvalues --   -0.65468  -0.54274  -0.54274  -0.47537  -0.46493
 Alpha  occ. eigenvalues --   -0.46421  -0.42120  -0.42120  -0.40524  -0.40524
 Alpha  occ. eigenvalues --   -0.39501  -0.36791  -0.36791  -0.34318  -0.34318
 Alpha  occ. eigenvalues --   -0.33534  -0.32114  -0.32114  -0.31099  -0.28325
 Alpha  occ. eigenvalues --   -0.28325  -0.25222  -0.21909  -0.12551  -0.12551
 Alpha  occ. eigenvalues --    0.04802
 Alpha virt. eigenvalues --    0.12017   0.12017   0.13368   0.13368   0.16537
 Alpha virt. eigenvalues --    0.16538   0.17161   0.17804   0.18578   0.20412
 Alpha virt. eigenvalues --    0.20413   0.20972   0.23072   0.23686   0.23686
 Alpha virt. eigenvalues --    0.23935   0.23936   0.25977   0.25978   0.27088
 Alpha virt. eigenvalues --    0.28154   0.28154   0.28796   0.29986   0.29986
 Alpha virt. eigenvalues --    0.30376   0.30380   0.30381   0.34365   0.37185
 Alpha virt. eigenvalues --    0.37791   0.37862   0.37863   0.43244   0.43602
 Alpha virt. eigenvalues --    0.43602   0.44201   0.44588   0.44589   0.45422
 Alpha virt. eigenvalues --    0.45422   0.48844   0.49723   0.49782   0.49782
 Alpha virt. eigenvalues --    0.50900   0.50901   0.51121   0.51121   0.53228
 Alpha virt. eigenvalues --    0.53228   0.54972   0.54972   0.55780   0.63171
 Alpha virt. eigenvalues --    0.63417   0.63417   0.64223   0.64223   0.65413
 Alpha virt. eigenvalues --    0.67738   0.70349   0.70349   0.70718   0.73291
 Alpha virt. eigenvalues --    0.74457   0.76384   0.76384   0.77985   0.86541
 Alpha virt. eigenvalues --    0.86541   0.89365   0.89365   0.92332   0.96575
 Alpha virt. eigenvalues --    1.01378   1.01378   1.06994   1.06994   1.08033
 Alpha virt. eigenvalues --    1.11239   1.11239   1.14248   1.18941   1.20559
 Alpha virt. eigenvalues --    1.20559   1.28450   1.28450   1.30777   1.30777
 Alpha virt. eigenvalues --    1.33217   1.41403   1.41976   1.51027   1.54869
 Alpha virt. eigenvalues --    1.54902   1.54902   1.57139   1.57139   1.58109
 Alpha virt. eigenvalues --    1.58109   1.58481   1.58482   1.59951   1.60362
 Alpha virt. eigenvalues --    1.64037   1.67336   1.67678   1.67678   1.68241
 Alpha virt. eigenvalues --    1.69581   1.69582   1.74239   1.74239   1.76883
 Alpha virt. eigenvalues --    1.87114   1.87114   1.88346   1.88346   1.94970
 Alpha virt. eigenvalues --    1.94970   1.97436   1.97436   2.05799   2.06320
 Alpha virt. eigenvalues --    2.14835   2.14835   2.21577   2.21578   2.28025
 Alpha virt. eigenvalues --    2.28025   2.32085   2.32085   2.35646   2.36214
 Alpha virt. eigenvalues --    2.50520   2.50520   2.50966   2.54194   2.71064
 Alpha virt. eigenvalues --    2.83832   2.83832   2.97325   2.97325   3.06520
 Alpha virt. eigenvalues --    3.18404   3.20575   3.22070   3.22070   3.24978
 Alpha virt. eigenvalues --    3.31216   3.31216   3.54381   3.54381   3.78511
 Alpha virt. eigenvalues --    3.87621   3.87621   3.91451   3.92383   3.92383
 Alpha virt. eigenvalues --    3.92542   3.93075   3.93075   3.94011   3.97705
 Alpha virt. eigenvalues --    3.97981   3.97981   4.04845   4.07052   4.09842
 Alpha virt. eigenvalues --    4.09842   4.09932   4.09932   4.13662   4.13662
 Alpha virt. eigenvalues --    4.17231   4.18434   4.18434   4.28195   4.28195
 Alpha virt. eigenvalues --    4.34114   4.77155   4.96072   4.96072   5.00599
 Alpha virt. eigenvalues --    5.05977   5.05977   5.12540   6.45275   6.48862
 Alpha virt. eigenvalues --    6.48862   6.51758   6.51758   6.55376   6.56521
 Alpha virt. eigenvalues --    6.60765   6.60765   6.63868   6.63869   6.64214
 Alpha virt. eigenvalues --    6.72545   6.88594   6.88594   6.97214   6.97214
 Alpha virt. eigenvalues --    7.04459  23.56236  23.97058  23.97058  24.11224
 Alpha virt. eigenvalues --   24.11225  24.21090  67.02730  67.06378  67.06378
 Alpha virt. eigenvalues --   67.09561  67.09562  67.17201
  Beta  occ. eigenvalues --  -24.65537 -24.65537 -24.65537 -24.65536 -24.65536
  Beta  occ. eigenvalues --  -24.65536 -10.20158 -10.20137 -10.20137 -10.20088
  Beta  occ. eigenvalues --  -10.20088 -10.20064  -1.14292  -1.13714  -1.13714
  Beta  occ. eigenvalues --   -1.12607  -1.12607  -1.12064  -0.76067  -0.65100
  Beta  occ. eigenvalues --   -0.65100  -0.53931  -0.53931  -0.46808  -0.46182
  Beta  occ. eigenvalues --   -0.45990  -0.41577  -0.41577  -0.40107  -0.40107
  Beta  occ. eigenvalues --   -0.39204  -0.36552  -0.36552  -0.34120  -0.34120
  Beta  occ. eigenvalues --   -0.33347  -0.31926  -0.31926  -0.30923  -0.28087
  Beta  occ. eigenvalues --   -0.28087  -0.25023  -0.21645  -0.12256  -0.12256
  Beta virt. eigenvalues --    0.10112   0.12368   0.12368   0.14844   0.14844
  Beta virt. eigenvalues --    0.17773   0.17773   0.18286   0.19295   0.19949
  Beta virt. eigenvalues --    0.21562   0.21563   0.21811   0.24070   0.25066
  Beta virt. eigenvalues --    0.25066   0.25134   0.25134   0.27152   0.27152
  Beta virt. eigenvalues --    0.28401   0.29082   0.29193   0.29193   0.31203
  Beta virt. eigenvalues --    0.31203   0.31291   0.31382   0.31383   0.35724
  Beta virt. eigenvalues --    0.37774   0.38584   0.38585   0.38763   0.43779
  Beta virt. eigenvalues --    0.44241   0.44241   0.45022   0.45342   0.45342
  Beta virt. eigenvalues --    0.46220   0.46220   0.49668   0.50245   0.50245
  Beta virt. eigenvalues --    0.50305   0.51664   0.51664   0.51929   0.51929
  Beta virt. eigenvalues --    0.54023   0.54023   0.55631   0.55631   0.56553
  Beta virt. eigenvalues --    0.63736   0.64102   0.64102   0.64850   0.64850
  Beta virt. eigenvalues --    0.66011   0.68396   0.70933   0.70934   0.71713
  Beta virt. eigenvalues --    0.73838   0.74786   0.76966   0.76966   0.78408
  Beta virt. eigenvalues --    0.87053   0.87053   0.89861   0.89861   0.92833
  Beta virt. eigenvalues --    0.97251   1.01790   1.01790   1.07494   1.07494
  Beta virt. eigenvalues --    1.08380   1.11612   1.11612   1.14830   1.19306
  Beta virt. eigenvalues --    1.21056   1.21056   1.28714   1.28714   1.31057
  Beta virt. eigenvalues --    1.31057   1.33466   1.41940   1.42557   1.51354
  Beta virt. eigenvalues --    1.55221   1.55355   1.55355   1.57481   1.57481
  Beta virt. eigenvalues --    1.58448   1.58448   1.58933   1.58934   1.60265
  Beta virt. eigenvalues --    1.61004   1.64578   1.67992   1.68053   1.68053
  Beta virt. eigenvalues --    1.68562   1.69915   1.69915   1.75067   1.75067
  Beta virt. eigenvalues --    1.77202   1.87369   1.87369   1.88650   1.88650
  Beta virt. eigenvalues --    1.95325   1.95325   1.97802   1.97802   2.06131
  Beta virt. eigenvalues --    2.06505   2.15171   2.15171   2.21950   2.21950
  Beta virt. eigenvalues --    2.28371   2.28371   2.32254   2.32254   2.36020
  Beta virt. eigenvalues --    2.36547   2.51003   2.51003   2.51080   2.54562
  Beta virt. eigenvalues --    2.71241   2.84033   2.84033   2.97503   2.97503
  Beta virt. eigenvalues --    3.06850   3.18594   3.20719   3.22388   3.22388
  Beta virt. eigenvalues --    3.25295   3.31530   3.31530   3.54657   3.54657
  Beta virt. eigenvalues --    3.79010   3.87774   3.87774   3.91556   3.92491
  Beta virt. eigenvalues --    3.92491   3.92651   3.93185   3.93185   3.94122
  Beta virt. eigenvalues --    3.97833   3.98104   3.98104   4.05183   4.07399
  Beta virt. eigenvalues --    4.10097   4.10097   4.10181   4.10181   4.13999
  Beta virt. eigenvalues --    4.13999   4.17564   4.18783   4.18783   4.28534
  Beta virt. eigenvalues --    4.28534   4.34449   4.77553   4.96475   4.96475
  Beta virt. eigenvalues --    5.00767   5.06368   5.06368   5.12922   6.45419
  Beta virt. eigenvalues --    6.49010   6.49010   6.51909   6.51909   6.55521
  Beta virt. eigenvalues --    6.56670   6.60906   6.60906   6.64007   6.64008
  Beta virt. eigenvalues --    6.64691   6.72686   6.89041   6.89041   6.97657
  Beta virt. eigenvalues --    6.97657   7.04902  23.56297  23.97120  23.97120
  Beta virt. eigenvalues --   24.11289  24.11289  24.21157  67.02910  67.06557
  Beta virt. eigenvalues --   67.06558  67.09741  67.09741  67.17380
          Condensed to atoms (all electrons):
               1          2          3          4          5          6
     1  C   15.688981   0.732520  -3.600950  -3.225734  -3.600936   0.732406
     2  C    0.732520  15.688982   0.732406  -3.600936  -3.225734  -3.600950
     3  C   -3.600950   0.732406  15.687152   0.732406  -3.600950  -3.225836
     4  C   -3.225734  -3.600936   0.732406  15.688982   0.732520  -3.600950
     5  C   -3.600936  -3.225734  -3.600950   0.732520  15.688982   0.732406
     6  C    0.732406  -3.600950  -3.225836  -3.600950   0.732406  15.687152
     7  F    0.161158  -0.350360  -0.078465   0.023218  -0.078667  -0.350066
     8  F   -0.350360   0.161158  -0.350066  -0.078667   0.023218  -0.078465
     9  F   -0.078647  -0.350391   0.161683  -0.350391  -0.078647   0.023362
    10  F    0.023218  -0.078667  -0.350066   0.161158  -0.350360  -0.078465
    11  F   -0.078667   0.023218  -0.078465  -0.350360   0.161158  -0.350066
    12  F   -0.350391  -0.078647   0.023362  -0.078647  -0.350391   0.161683
               7          8          9         10         11         12
     1  C    0.161158  -0.350360  -0.078647   0.023218  -0.078667  -0.350391
     2  C   -0.350360   0.161158  -0.350391  -0.078667   0.023218  -0.078647
     3  C   -0.078465  -0.350066   0.161683  -0.350066  -0.078465   0.023362
     4  C    0.023218  -0.078667  -0.350391   0.161158  -0.350360  -0.078647
     5  C   -0.078667   0.023218  -0.078647  -0.350360   0.161158  -0.350391
     6  C   -0.350066  -0.078465   0.023362  -0.078465  -0.350066   0.161683
     7  F    9.578172   0.095784   0.007830   0.001990   0.007831   0.095770
     8  F    0.095784   9.578172   0.095770   0.007831   0.001990   0.007830
     9  F    0.007830   0.095770   9.578047   0.095770   0.007830   0.001989
    10  F    0.001990   0.007831   0.095770   9.578172   0.095784   0.007830
    11  F    0.007831   0.001990   0.007830   0.095784   9.578172   0.095770
    12  F    0.095770   0.007830   0.001989   0.007830   0.095770   9.578047
          Atomic-Atomic Spin Densities.
               1          2          3          4          5          6
     1  C    0.680698   0.194233  -0.023193  -0.048071  -0.022996   0.193960
     2  C    0.194233   0.680699   0.193960  -0.022996  -0.048071  -0.023193
     3  C   -0.023193   0.193960   0.679400   0.193960  -0.023193  -0.048375
     4  C   -0.048071  -0.022996   0.193960   0.680699   0.194233  -0.023193
     5  C   -0.022996  -0.048071  -0.023193   0.194233   0.680698   0.193960
     6  C    0.193960  -0.023193  -0.048375  -0.023193   0.193960   0.679400
     7  F   -0.406038  -0.143497  -0.011652   0.001413  -0.011854  -0.143205
     8  F   -0.143497  -0.406038  -0.143205  -0.011854   0.001413  -0.011652
     9  F   -0.011835  -0.143513  -0.405550  -0.143513  -0.011835   0.001556
    10  F    0.001413  -0.011854  -0.143205  -0.406038  -0.143497  -0.011652
    11  F   -0.011854   0.001413  -0.011652  -0.143497  -0.406038  -0.143205
    12  F   -0.143513  -0.011835   0.001556  -0.011835  -0.143513  -0.405550
               7          8          9         10         11         12
     1  C   -0.406038  -0.143497  -0.011835   0.001413  -0.011854  -0.143513
     2  C   -0.143497  -0.406038  -0.143513  -0.011854   0.001413  -0.011835
     3  C   -0.011652  -0.143205  -0.405550  -0.143205  -0.011652   0.001556
     4  C    0.001413  -0.011854  -0.143513  -0.406038  -0.143497  -0.011835
     5  C   -0.011854   0.001413  -0.011835  -0.143497  -0.406038  -0.143513
     6  C   -0.143205  -0.011652   0.001556  -0.011652  -0.143205  -0.405550
     7  F    0.417571   0.093972   0.007364   0.002108   0.007366   0.093958
     8  F    0.093972   0.417571   0.093958   0.007366   0.002108   0.007364
     9  F    0.007364   0.093958   0.417460   0.093958   0.007364   0.002107
    10  F    0.002108   0.007366   0.093958   0.417571   0.093972   0.007364
    11  F    0.007366   0.002108   0.007364   0.093972   0.417571   0.093958
    12  F    0.093958   0.007364   0.002107   0.007364   0.093958   0.417460
 Mulliken charges and spin densities:
               1          2
     1  C   -0.052597   0.259307
     2  C   -0.052597   0.259307
     3  C   -0.052210   0.258852
     4  C   -0.052597   0.259307
     5  C   -0.052597   0.259307
     6  C   -0.052210   0.258852
     7  F   -0.114196  -0.092494
     8  F   -0.114196  -0.092494
     9  F   -0.114204  -0.092478
    10  F   -0.114196  -0.092494
    11  F   -0.114196  -0.092494
    12  F   -0.114204  -0.092478
 Sum of Mulliken charges =  -1.00000   1.00000
 Mulliken charges and spin densities with hydrogens summed into heavy atoms:
               1          2
     1  C   -0.052597   0.259307
     2  C   -0.052597   0.259307
     3  C   -0.052210   0.258852
     4  C   -0.052597   0.259307
     5  C   -0.052597   0.259307
     6  C   -0.052210   0.258852
     7  F   -0.114196  -0.092494
     8  F   -0.114196  -0.092494
     9  F   -0.114204  -0.092478
    10  F   -0.114196  -0.092494
    11  F   -0.114196  -0.092494
    12  F   -0.114204  -0.092478
 Electronic spatial extent (au):  <R**2>=           1938.3435
 Charge=             -1.0000 electrons
 Dipole moment (field-independent basis, Debye):
    X=              0.0000    Y=              0.0000    Z=             -0.0000  Tot=              0.0000
 Quadrupole moment (field-independent basis, Debye-Ang):
   XX=            -91.6371   YY=            -91.6376   ZZ=            -70.3572
   XY=             -0.0000   XZ=              0.0000   YZ=              0.0000
 Traceless Quadrupole moment (field-independent basis, Debye-Ang):
   XX=             -7.0932   YY=             -7.0936   ZZ=             14.1867
   XY=             -0.0000   XZ=              0.0000   YZ=              0.0000
 Octapole moment (field-independent basis, Debye-Ang**2):
  XXX=              0.0000  YYY=              0.0000  ZZZ=             -0.0000  XYY=              0.0000
  XXY=             -0.0000  XXZ=             -0.0000  XZZ=              0.0000  YZZ=              0.0000
  YYZ=              0.0000  XYZ=             -0.0000
 Hexadecapole moment (field-independent basis, Debye-Ang**3):
 XXXX=          -1217.4410 YYYY=          -1217.4535 ZZZZ=           -105.4244 XXXY=             -0.0000
 XXXZ=              0.0000 YYYX=             -0.0000 YYYZ=              0.0000 ZZZX=              0.0000
 ZZZY=              0.0000 XXYY=           -405.8152 XXZZ=           -196.1225 YYZZ=           -196.1235
 XXYZ=             -0.0000 YYXZ=              0.0000 ZZXY=             -0.0000
 N-N= 7.181613876486D+02 E-N=-3.410674439150D+03  KE= 8.244215585554D+02
                          Isotropic Fermi Contact Couplings
        Atom                 a.u.       MegaHertz       Gauss      10(-4) cm-1
     1  C(13)              0.01507      16.94105       6.04499       5.65093
     2  C(13)              0.01507      16.94105       6.04499       5.65093
     3  C(13)              0.01507      16.94114       6.04502       5.65096
     4  C(13)              0.01507      16.94105       6.04499       5.65093
     5  C(13)              0.01507      16.94105       6.04499       5.65093
     6  C(13)              0.01507      16.94114       6.04502       5.65096
     7  F(19)              0.18018     758.07541     270.50016     252.86674
     8  F(19)              0.18018     758.07541     270.50016     252.86674
     9  F(19)              0.18018     758.08348     270.50304     252.86943
    10  F(19)              0.18018     758.07541     270.50016     252.86674
    11  F(19)              0.18018     758.07541     270.50016     252.86674
    12  F(19)              0.18018     758.08348     270.50304     252.86943
 --------------------------------------------------------
       Center         ----  Spin Dipole Couplings  ----
                      3XX-RR        3YY-RR        3ZZ-RR
 --------------------------------------------------------
     1   Atom        0.029310     -0.001538     -0.027773
     2   Atom        0.029310     -0.001538     -0.027773
     3   Atom       -0.016962      0.044735     -0.027773
     4   Atom        0.029310     -0.001538     -0.027773
     5   Atom        0.029310     -0.001538     -0.027773
     6   Atom       -0.016962      0.044735     -0.027773
     7   Atom        0.139809     -0.026783     -0.113027
     8   Atom        0.139809     -0.026783     -0.113027
     9   Atom       -0.110077      0.223102     -0.113025
    10   Atom        0.139809     -0.026783     -0.113027
    11   Atom        0.139809     -0.026783     -0.113027
    12   Atom       -0.110077      0.223102     -0.113025
 --------------------------------------------------------
                        XY            XZ            YZ
 --------------------------------------------------------
     1   Atom        0.026716      0.000000     -0.000000
     2   Atom       -0.026716     -0.000000     -0.000000
     3   Atom        0.000000     -0.000000     -0.000000
     4   Atom        0.026716     -0.000000      0.000000
     5   Atom       -0.026716     -0.000000     -0.000000
     6   Atom        0.000000      0.000000     -0.000000
     7   Atom        0.144275      0.000000      0.000000
     8   Atom       -0.144275     -0.000000      0.000000
     9   Atom       -0.000000     -0.000000      0.000000
    10   Atom        0.144275      0.000000      0.000000
    11   Atom       -0.144275     -0.000000      0.000000
    12   Atom        0.000000      0.000000     -0.000000
 --------------------------------------------------------


 ---------------------------------------------------------------------------------
              Anisotropic Spin Dipole Couplings in Principal Axis System
 ---------------------------------------------------------------------------------

       Atom             a.u.   MegaHertz   Gauss  10(-4) cm-1        Axes

              Baa    -0.0278    -3.727    -1.330    -1.243 -0.0000  0.0000  1.0000
     1 C(13)  Bbb    -0.0170    -2.276    -0.812    -0.759 -0.5000  0.8660 -0.0000
              Bcc     0.0447     6.003     2.142     2.002  0.8660  0.5000  0.0000
 
              Baa    -0.0278    -3.727    -1.330    -1.243  0.0000  0.0000  1.0000
     2 C(13)  Bbb    -0.0170    -2.276    -0.812    -0.759  0.5000  0.8660 -0.0000
              Bcc     0.0447     6.003     2.142     2.002  0.8660 -0.5000 -0.0000
 
              Baa    -0.0278    -3.727    -1.330    -1.243  0.0000  0.0000  1.0000
     3 C(13)  Bbb    -0.0170    -2.276    -0.812    -0.759  1.0000 -0.0000 -0.0000
              Bcc     0.0447     6.003     2.142     2.002  0.0000  1.0000 -0.0000
 
              Baa    -0.0278    -3.727    -1.330    -1.243  0.0000 -0.0000  1.0000
     4 C(13)  Bbb    -0.0170    -2.276    -0.812    -0.759 -0.5000  0.8660  0.0000
              Bcc     0.0447     6.003     2.142     2.002  0.8660  0.5000  0.0000
 
              Baa    -0.0278    -3.727    -1.330    -1.243  0.0000  0.0000  1.0000
     5 C(13)  Bbb    -0.0170    -2.276    -0.812    -0.759  0.5000  0.8660 -0.0000
              Bcc     0.0447     6.003     2.142     2.002  0.8660 -0.5000  0.0000
 
              Baa    -0.0278    -3.727    -1.330    -1.243 -0.0000  0.0000  1.0000
     6 C(13)  Bbb    -0.0170    -2.276    -0.812    -0.759  1.0000 -0.0000  0.0000
              Bcc     0.0447     6.003     2.142     2.002  0.0000  1.0000 -0.0000
 
              Baa    -0.1130   -56.765   -20.255   -18.935 -0.0000  0.0000  1.0000
     7 F(19)  Bbb    -0.1101   -55.285   -19.727   -18.441 -0.5000  0.8660 -0.0000
              Bcc     0.2231   112.050    39.982    37.376  0.8660  0.5000  0.0000
 
              Baa    -0.1130   -56.765   -20.255   -18.935  0.0000  0.0000  1.0000
     8 F(19)  Bbb    -0.1101   -55.285   -19.727   -18.441  0.5000  0.8660 -0.0000
              Bcc     0.2231   112.050    39.982    37.376  0.8660 -0.5000 -0.0000
 
              Baa    -0.1130   -56.764   -20.255   -18.934  0.0000 -0.0000  1.0000
     9 F(19)  Bbb    -0.1101   -55.284   -19.727   -18.441  1.0000  0.0000 -0.0000
              Bcc     0.2231   112.047    39.981    37.375 -0.0000  1.0000  0.0000
 
              Baa    -0.1130   -56.765   -20.255   -18.935  0.0000 -0.0000  1.0000
    10 F(19)  Bbb    -0.1101   -55.285   -19.727   -18.441 -0.5000  0.8660  0.0000
              Bcc     0.2231   112.050    39.982    37.376  0.8660  0.5000  0.0000
 
              Baa    -0.1130   -56.765   -20.255   -18.935 -0.0000 -0.0000  1.0000
    11 F(19)  Bbb    -0.1101   -55.285   -19.727   -18.441  0.5000  0.8660  0.0000
              Bcc     0.2231   112.050    39.982    37.376  0.8660 -0.5000 -0.0000
 
              Baa    -0.1130   -56.764   -20.255   -18.934 -0.0000  0.0000  1.0000
    12 F(19)  Bbb    -0.1101   -55.284   -19.727   -18.441  1.0000 -0.0000  0.0000
              Bcc     0.2231   112.047    39.981    37.375  0.0000  1.0000 -0.0000
 

 ---------------------------------------------------------------------------------

 No NMR shielding tensors so no spin-rotation constants.
 Leave Link  601 at Thu Jan 30 14:32:08 2025, MaxMem=   104857600 cpu:               0.1 elap:               0.1
 (Enter /sw/cluster/pub/apps//g16/l701.exe)
 ... and contract with generalized density number  0.
 Compute integral first derivatives.
 Leave Link  701 at Thu Jan 30 14:32:09 2025, MaxMem=   104857600 cpu:               0.1 elap:               0.1
 (Enter /sw/cluster/pub/apps//g16/l702.exe)
 L702 exits ... SP integral derivatives will be done elsewhere.
 Leave Link  702 at Thu Jan 30 14:32:09 2025, MaxMem=   104857600 cpu:               0.0 elap:               0.0
 (Enter /sw/cluster/pub/apps//g16/l703.exe)
 Integral derivatives from FoFJK, PRISM(SPDF).
 Compute integral first derivatives, UseDBF=F ICtDFT=           0.
 Calling FoFJK, ICntrl=      2127 FMM=F ISym2X=0 I1Cent= 0 IOpClX= 1 NMat=1 NMatS=1 NMatT=0.
 FoFJK:  IHMeth= 1 ICntrl=    2127 DoSepK=F KAlg= 0 I1Cent=           0 FoldK=F
 IRaf=         0 NMat=       1 IRICut=       1 DoRegI=T DoRafI=F ISym2E= 0 IDoP0=0 IntGTp=1.
 FoFCou: FMM=F IPFlag=           0 FMFlag=      100000 FMFlg1=         800
         NFxFlg=           0 DoJE=F BraDBF=F KetDBF=F FulRan=T
         wScrn=  0.000000 ICntrl=      2127 IOpCl=  1 I1Cent=           0 NGrid=           0
         NMat0=    1 NMatS0=      1 NMatT0=    0 NMatD0=    1 NMtDS0=    0 NMtDT0=    0
 Symmetry not used in FoFCou.
 Leave Link  703 at Thu Jan 30 14:32:28 2025, MaxMem=   104857600 cpu:              19.1 elap:              19.1
 (Enter /sw/cluster/pub/apps//g16/l716.exe)
 Dipole        = 1.65613301D-10 4.25464108D-11-4.65647128D-15
 -------------------------------------------------------------------
 Center     Atomic                   Forces (Hartrees/Bohr)
 Number     Number              X              Y              Z
 -------------------------------------------------------------------
      1        6          -0.040208238   -0.023217855   -0.000000000
      2        6          -0.040208238    0.023217855    0.000000000
      3        6           0.000000000    0.046430924   -0.000000000
      4        6           0.040208238    0.023217855    0.000000000
      5        6           0.040208238   -0.023217855   -0.000000000
      6        6           0.000000000   -0.046430924    0.000000000
      7        9           0.005171584    0.002986910    0.000000000
      8        9           0.005171584   -0.002986910   -0.000000000
      9        9          -0.000000000   -0.005967774   -0.000000000
     10        9          -0.005171584   -0.002986910    0.000000000
     11        9          -0.005171584    0.002986910   -0.000000000
     12        9          -0.000000000    0.005967774   -0.000000000
 -------------------------------------------------------------------
 Cartesian Forces:  Max     0.046430924 RMS     0.019111255
 Leave Link  716 at Thu Jan 30 14:32:28 2025, MaxMem=   104857600 cpu:               0.0 elap:               0.0
 (Enter /sw/cluster/pub/apps//g16/l103.exe)

 GradGradGradGradGradGradGradGradGradGradGradGradGradGradGradGradGradGrad
 Berny optimization.
 FormGI is forming the generalized inverse of G from B-inverse, IUseBI=4.
 Internal  Forces:  Max     0.040462520 RMS     0.013632656
 Search for a local minimum.
 Step number   1 out of a maximum of   64
 All quantities printed in internal units (Hartrees-Bohrs-Radians)
 RMS Force = .13633D-01 SwitMx=.10000D-02 MixMth= 1
 Mixed Optimization -- RFO/linear search
 Second derivative matrix not updated -- first step.
 ITU=  0
     Eigenvalues ---    0.01795   0.01795   0.01795   0.01795   0.01795
     Eigenvalues ---    0.01795   0.01795   0.01795   0.01795   0.25000
     Eigenvalues ---    0.25000   0.25000   0.25000   0.25000   0.25000
     Eigenvalues ---    0.25000   0.25000   0.25000   0.39184   0.39184
     Eigenvalues ---    0.42130   0.42130   0.42130   0.42130   0.53508
     Eigenvalues ---    0.53508   0.53508   0.53508   0.53508   0.53508
 RFO step:  Lambda=-2.25146133D-02 EMin= 1.79498689D-02
 Linear search not attempted -- first point.
 Iteration  1 RMS(Cart)=  0.04053014 RMS(Int)=  0.00000015
 Iteration  2 RMS(Cart)=  0.00000020 RMS(Int)=  0.00000000
 ITry= 1 IFail=0 DXMaxC= 9.12D-02 DCOld= 1.00D+10 DXMaxT= 3.00D-01 DXLimC= 3.00D+00 Rises=F
 Variable       Old X    -DE/DX   Delta X   Delta X   Delta X     New X
                                 (Linear)    (Quad)   (Total)
    R1        2.68758  -0.04046   0.00000  -0.09117  -0.09117   2.59641
    R2        2.68758  -0.04046   0.00000  -0.09116  -0.09116   2.59642
    R3        2.56483   0.00597   0.00000   0.01071   0.01071   2.57554
    R4        2.68758  -0.04046   0.00000  -0.09116  -0.09116   2.59642
    R5        2.56483   0.00597   0.00000   0.01071   0.01071   2.57554
    R6        2.68758  -0.04046   0.00000  -0.09116  -0.09116   2.59642
    R7        2.56483   0.00597   0.00000   0.01070   0.01070   2.57553
    R8        2.68758  -0.04046   0.00000  -0.09117  -0.09117   2.59641
    R9        2.56483   0.00597   0.00000   0.01071   0.01071   2.57554
   R10        2.68758  -0.04046   0.00000  -0.09116  -0.09116   2.59642
   R11        2.56483   0.00597   0.00000   0.01071   0.01071   2.57554
   R12        2.56483   0.00597   0.00000   0.01070   0.01070   2.57553
    A1        2.09440  -0.00000   0.00000  -0.00001  -0.00001   2.09439
    A2        2.09440   0.00000   0.00000   0.00001   0.00001   2.09440
    A3        2.09440  -0.00000   0.00000  -0.00000  -0.00000   2.09439
    A4        2.09440  -0.00000   0.00000  -0.00001  -0.00001   2.09439
    A5        2.09440   0.00000   0.00000   0.00001   0.00001   2.09440
    A6        2.09440  -0.00000   0.00000  -0.00000  -0.00000   2.09439
    A7        2.09440   0.00000   0.00000   0.00001   0.00001   2.09441
    A8        2.09440  -0.00000   0.00000  -0.00001  -0.00001   2.09439
    A9        2.09440  -0.00000   0.00000  -0.00001  -0.00001   2.09439
   A10        2.09440  -0.00000   0.00000  -0.00001  -0.00001   2.09439
   A11        2.09440  -0.00000   0.00000  -0.00000  -0.00000   2.09439
   A12        2.09440   0.00000   0.00000   0.00001   0.00001   2.09440
   A13        2.09440  -0.00000   0.00000  -0.00001  -0.00001   2.09439
   A14        2.09440   0.00000   0.00000   0.00001   0.00001   2.09440
   A15        2.09440  -0.00000   0.00000  -0.00000  -0.00000   2.09439
   A16        2.09440   0.00000   0.00000   0.00001   0.00001   2.09441
   A17        2.09440  -0.00000   0.00000  -0.00001  -0.00001   2.09439
   A18        2.09440  -0.00000   0.00000  -0.00001  -0.00001   2.09439
    D1        0.00000   0.00000   0.00000   0.00000   0.00000   0.00000
    D2        3.14159  -0.00000   0.00000  -0.00000   0.00000   3.14159
    D3        3.14159   0.00000   0.00000   0.00000   0.00000   3.14159
    D4        0.00000  -0.00000   0.00000  -0.00000  -0.00000   0.00000
    D5        0.00000   0.00000   0.00000   0.00000  -0.00000   0.00000
    D6        3.14159   0.00000   0.00000   0.00000   0.00000   3.14159
    D7        3.14159  -0.00000   0.00000  -0.00000   0.00000   3.14159
    D8        0.00000   0.00000   0.00000   0.00000   0.00000   0.00000
    D9        0.00000  -0.00000   0.00000  -0.00000  -0.00000   0.00000
   D10        3.14159  -0.00000   0.00000  -0.00000   0.00000   3.14159
   D11        3.14159   0.00000   0.00000   0.00000   0.00000   3.14159
   D12        0.00000   0.00000   0.00000   0.00000   0.00000   0.00000
   D13        0.00000   0.00000   0.00000   0.00000   0.00000   0.00000
   D14        3.14159   0.00000   0.00000   0.00000   0.00000   3.14159
   D15        3.14159   0.00000   0.00000   0.00000   0.00000   3.14159
   D16        0.00000   0.00000   0.00000   0.00000  -0.00000   0.00000
   D17        0.00000  -0.00000   0.00000  -0.00000  -0.00000   0.00000
   D18        3.14159  -0.00000   0.00000  -0.00000   0.00000   3.14159
   D19        3.14159  -0.00000   0.00000  -0.00000   0.00000   3.14159
   D20        0.00000   0.00000   0.00000   0.00000   0.00000   0.00000
   D21        0.00000   0.00000   0.00000   0.00000   0.00000   0.00000
   D22        3.14159   0.00000   0.00000   0.00000   0.00000   3.14159
   D23        3.14159  -0.00000   0.00000  -0.00000   0.00000   3.14159
   D24        0.00000  -0.00000   0.00000  -0.00000  -0.00000   0.00000
         Item               Value     Threshold  Converged?
 Maximum Force            0.040463     0.000450     NO 
 RMS     Force            0.013633     0.000300     NO 
 Maximum Displacement     0.091182     0.001800     NO 
 RMS     Displacement     0.040530     0.001200     NO 
 Predicted change in Energy=-1.182640D-02
 Lowest energy point so far.  Saving SCF results.
 GradGradGradGradGradGradGradGradGradGradGradGradGradGradGradGradGradGrad

 Leave Link  103 at Thu Jan 30 14:32:28 2025, MaxMem=   104857600 cpu:               0.0 elap:               0.0
 (Enter /sw/cluster/pub/apps//g16/l202.exe)
                          Input orientation:                          
 ---------------------------------------------------------------------
 Center     Atomic      Atomic             Coordinates (Angstroms)
 Number     Number       Type             X           Y           Z
 ---------------------------------------------------------------------
      1          6           0        1.189895    0.686981   -0.000000
      2          6           0        1.189895   -0.686981    0.000000
      3          6           0        0.000000   -1.373957   -0.000000
      4          6           0       -1.189895   -0.686981    0.000000
      5          6           0       -1.189895    0.686981   -0.000000
      6          6           0        0.000000    1.373957    0.000000
      7          9           0        2.370210    1.368449    0.000000
      8          9           0        2.370210   -1.368449   -0.000000
      9          9           0       -0.000000   -2.736869    0.000000
     10          9           0       -2.370210   -1.368449   -0.000000
     11          9           0       -2.370210    1.368449    0.000000
     12          9           0       -0.000000    2.736869   -0.000000
 ---------------------------------------------------------------------
                    Distance matrix (angstroms):
                    1          2          3          4          5
     1  C    0.000000
     2  C    1.373963   0.000000
     3  C    2.379772   1.373967   0.000000
     4  C    2.747941   2.379791   1.373967   0.000000
     5  C    2.379791   2.747941   2.379772   1.373963   0.000000
     6  C    1.373967   2.379772   2.747913   2.379772   1.373967
     7  F    1.362916   2.370218   3.624732   4.110857   3.624741
     8  F    2.370218   1.362916   2.370217   3.624741   4.110857
     9  F    3.624721   2.370209   1.362912   2.370209   3.624721
    10  F    4.110857   3.624741   2.370217   1.362916   2.370218
    11  F    3.624741   4.110857   3.624732   2.370218   1.362916
    12  F    2.370209   3.624721   4.110825   3.624721   2.370209
                    6          7          8          9         10
     6  C    0.000000
     7  F    2.370217   0.000000
     8  F    3.624732   2.736898   0.000000
     9  F    4.110825   4.740414   2.736872   0.000000
    10  F    3.624732   5.473773   4.740420   2.736872   0.000000
    11  F    2.370217   4.740420   5.473773   4.740414   2.736898
    12  F    1.362912   2.736872   4.740414   5.473738   4.740414
                   11         12
    11  F    0.000000
    12  F    2.736872   0.000000
 Symmetry turned off by external request.
 Stoichiometry    C6F6(1-,2)
 Framework group  C2H[SGH(C6F6)]
 Deg. of freedom    11
 Full point group                 C2H     NOp   4
 Rotational constants (GHZ):           1.0212107           1.0212048           0.5106039
 Leave Link  202 at Thu Jan 30 14:32:28 2025, MaxMem=   104857600 cpu:               0.0 elap:               0.0
 (Enter /sw/cluster/pub/apps//g16/l301.exe)
 Standard basis: 6-311++G(d,p) (5D, 7F)
 Ernie: Thresh=  0.10000D-02 Tol=  0.10000D-05 Strict=F.
   264 basis functions,   432 primitive gaussians,   276 cartesian basis functions
    46 alpha electrons       45 beta electrons
       nuclear repulsion energy       730.5150394649 Hartrees.
 IExCor= 1009 DFT=T Ex+Corr=PBE1PBE ExCW=0 ScaHFX=  0.250000
 ScaDFX=  0.750000  0.750000  1.000000  1.000000 ScalE2=  1.000000  1.000000
 IRadAn=      5 IRanWt=     -1 IRanGd=            0 ICorTp=0 IEmpDi=  4
 NAtoms=   12 NActive=   12 NUniq=   12 SFac= 1.00D+00 NAtFMM=   60 NAOKFM=F Big=F
 Integral buffers will be    131072 words long.
 Raffenetti 2 integral format.
 Two-electron integral symmetry is turned off.
 Leave Link  301 at Thu Jan 30 14:32:28 2025, MaxMem=   104857600 cpu:               0.0 elap:               0.0
 (Enter /sw/cluster/pub/apps//g16/l302.exe)
 NPDir=0 NMtPBC=     1 NCelOv=     1 NCel=       1 NClECP=     1 NCelD=      1
         NCelK=      1 NCelE2=     1 NClLst=     1 CellRange=     0.0.
 One-electron integrals computed using PRISM.
 NBasis=   264 RedAO= T EigKep=  1.26D-06  NBF=   264
 NBsUse=   264 1.00D-06 EigRej= -1.00D+00 NBFU=   264
 Precomputing XC quadrature grid using
 IXCGrd= 4 IRadAn=           5 IRanWt=          -1 IRanGd=           0 AccXCQ= 0.00D+00.
 Generated NRdTot=       0 NPtTot=           0 NUsed=           0 NTot=          32
 NSgBfM=   275   275   275   275   275 MxSgAt=    12 MxSgA2=    12.
 Leave Link  302 at Thu Jan 30 14:32:28 2025, MaxMem=   104857600 cpu:               0.1 elap:               0.1
 (Enter /sw/cluster/pub/apps//g16/l303.exe)
 DipDrv:  MaxL=1.
 Leave Link  303 at Thu Jan 30 14:32:28 2025, MaxMem=   104857600 cpu:               0.0 elap:               0.0
 (Enter /sw/cluster/pub/apps//g16/l401.exe)
 Initial guess from the checkpoint file:  "HFB-ANI.chk"
 B after Tr=    -0.000000   -0.000000   -0.000000
         Rot=    1.000000   -0.000000   -0.000000    0.000000 Ang=   0.00 deg.
 Guess basis will be translated and rotated to current coordinates.
 JPrj=2 DoOrth=T DoCkMO=T.
 Initial guess <Sx>= 0.0000 <Sy>= 0.0000 <Sz>= 0.5000 <S**2>= 0.7505 S= 0.5002
 Generating alternative initial guess.
 ExpMin= 4.38D-02 ExpMax= 1.14D+04 ExpMxC= 1.72D+03 IAcc=2 IRadAn=         4 AccDes= 0.00D+00
 Harris functional with IExCor= 1009 and IRadAn=       4 diagonalized for initial guess.
 HarFok:  IExCor= 1009 AccDes= 0.00D+00 IRadAn=         4 IDoV= 1 UseB2=F ITyADJ=14
 ICtDFT=  3500011 ScaDFX=  1.000000  1.000000  1.000000  1.000000
 FoFCou: FMM=F IPFlag=           0 FMFlag=      100000 FMFlg1=           0
         NFxFlg=           0 DoJE=T BraDBF=F KetDBF=T FulRan=T
         wScrn=  0.000000 ICntrl=       500 IOpCl=  0 I1Cent=   200000004 NGrid=           0
         NMat0=    1 NMatS0=      1 NMatT0=    0 NMatD0=    1 NMtDS0=    0 NMtDT0=    0
 Symmetry not used in FoFCou.
 Harris En= -827.162816427989    
 Leave Link  401 at Thu Jan 30 14:32:29 2025, MaxMem=   104857600 cpu:               0.6 elap:               0.6
 (Enter /sw/cluster/pub/apps//g16/l502.exe)
 Two-electron integral symmetry not used.
 UHF open shell SCF:
 Using DIIS extrapolation, IDIIS=  1040.
 NGot=   104857600 LenX=   104701692 LenY=   104625075
 Requested convergence on RMS density matrix=1.00D-08 within 128 cycles.
 Requested convergence on MAX density matrix=1.00D-06.
 Requested convergence on             energy=1.00D-06.
 No special actions if energy rises.
 Fock matrices will be formed incrementally for  20 cycles.

 Cycle   1  Pass 1  IDiag  1:
 FoFJK:  IHMeth= 1 ICntrl=       0 DoSepK=F KAlg= 0 I1Cent=           0 FoldK=F
 IRaf= 900000000 NMat=       1 IRICut=       1 DoRegI=T DoRafI=F ISym2E= 0 IDoP0=0 IntGTp=1.
 FoFCou: FMM=F IPFlag=           0 FMFlag=      100000 FMFlg1=           0
         NFxFlg=           0 DoJE=F BraDBF=F KetDBF=F FulRan=T
         wScrn=  0.000000 ICntrl=         0 IOpCl=  1 I1Cent=           0 NGrid=           0
         NMat0=    1 NMatS0=      1 NMatT0=    0 NMatD0=    1 NMtDS0=    0 NMtDT0=    0
 Symmetry not used in FoFCou.
 E= -827.040855260008    
 DIIS: error= 7.39D-03 at cycle   1 NSaved=   1.
 NSaved= 1 IEnMin= 1 EnMin= -827.040855260008     IErMin= 1 ErrMin= 7.39D-03
 ErrMax= 7.39D-03  0.00D+00 EMaxC= 1.00D-01 BMatC= 2.85D-02 BMatP= 2.85D-02
 IDIUse=3 WtCom= 9.26D-01 WtEn= 7.39D-02
 Coeff-Com:  0.100D+01
 Coeff-En:   0.100D+01
 Coeff:      0.100D+01
 Gap=     0.357 Goal=   None    Shift=    0.000
 Gap=     0.461 Goal=   None    Shift=    0.000
 GapD=    0.357 DampG=1.000 DampE=1.000 DampFc=1.0000 IDamp=-1.
 RMSDP=1.89D-02 MaxDP=8.11D-01              OVMax= 5.34D-02

 Cycle   2  Pass 1  IDiag  1:
 RMSU=  6.05D-03    CP:  1.27D+00
 E= -827.048122154418     Delta-E=       -0.007266894410 Rises=F Damp=F
 DIIS: error= 3.89D-03 at cycle   2 NSaved=   2.
 NSaved= 2 IEnMin= 2 EnMin= -827.048122154418     IErMin= 2 ErrMin= 3.89D-03
 ErrMax= 3.89D-03  0.00D+00 EMaxC= 1.00D-01 BMatC= 6.28D-03 BMatP= 2.85D-02
 IDIUse=3 WtCom= 9.61D-01 WtEn= 3.89D-02
 Coeff-Com:  0.240D+00 0.760D+00
 Coeff-En:   0.000D+00 0.100D+01
 Coeff:      0.231D+00 0.769D+00
 Gap=     0.092 Goal=   None    Shift=    0.000
 Gap=     0.223 Goal=   None    Shift=    0.000
 RMSDP=1.72D-03 MaxDP=6.64D-02 DE=-7.27D-03 OVMax= 2.61D-02

 Cycle   3  Pass 1  IDiag  1:
 RMSU=  1.26D-03    CP:  1.25D+00  9.63D-01
 E= -827.048307737846     Delta-E=       -0.000185583427 Rises=F Damp=F
 DIIS: error= 3.62D-03 at cycle   3 NSaved=   3.
 NSaved= 3 IEnMin= 3 EnMin= -827.048307737846     IErMin= 3 ErrMin= 3.62D-03
 ErrMax= 3.62D-03  0.00D+00 EMaxC= 1.00D-01 BMatC= 6.42D-03 BMatP= 6.28D-03
 IDIUse=3 WtCom= 9.64D-01 WtEn= 3.62D-02
 Coeff-Com:  0.564D-02 0.502D+00 0.493D+00
 Coeff-En:   0.000D+00 0.469D+00 0.531D+00
 Coeff:      0.544D-02 0.501D+00 0.494D+00
 Gap=     0.091 Goal=   None    Shift=    0.000
 Gap=     0.225 Goal=   None    Shift=    0.000
 RMSDP=1.98D-03 MaxDP=8.59D-02 DE=-1.86D-04 OVMax= 9.99D-03

 Cycle   4  Pass 1  IDiag  1:
 RMSU=  3.12D-04    CP:  1.27D+00  1.02D+00  2.32D-01
 E= -827.049483618529     Delta-E=       -0.001175880684 Rises=F Damp=F
 DIIS: error= 6.90D-04 at cycle   4 NSaved=   4.
 NSaved= 4 IEnMin= 4 EnMin= -827.049483618529     IErMin= 4 ErrMin= 6.90D-04
 ErrMax= 6.90D-04  0.00D+00 EMaxC= 1.00D-01 BMatC= 2.08D-04 BMatP= 6.28D-03
 IDIUse=3 WtCom= 9.93D-01 WtEn= 6.90D-03
 Coeff-Com: -0.771D-02 0.210D+00 0.244D+00 0.554D+00
 Coeff-En:   0.000D+00 0.000D+00 0.000D+00 0.100D+01
 Coeff:     -0.766D-02 0.208D+00 0.242D+00 0.557D+00
 Gap=     0.088 Goal=   None    Shift=    0.000
 Gap=     0.226 Goal=   None    Shift=    0.000
 RMSDP=1.04D-04 MaxDP=3.63D-03 DE=-1.18D-03 OVMax= 4.85D-03

 Cycle   5  Pass 1  IDiag  1:
 RMSU=  5.71D-05    CP:  1.27D+00  1.02D+00  2.00D-01  8.62D-01
 E= -827.049515128119     Delta-E=       -0.000031509589 Rises=F Damp=F
 DIIS: error= 8.02D-05 at cycle   5 NSaved=   5.
 NSaved= 5 IEnMin= 5 EnMin= -827.049515128119     IErMin= 5 ErrMin= 8.02D-05
 ErrMax= 8.02D-05  0.00D+00 EMaxC= 1.00D-01 BMatC= 3.26D-06 BMatP= 2.08D-04
 IDIUse=1 WtCom= 1.00D+00 WtEn= 0.00D+00
 Coeff-Com: -0.217D-02 0.199D-01 0.390D-01 0.131D+00 0.812D+00
 Coeff:     -0.217D-02 0.199D-01 0.390D-01 0.131D+00 0.812D+00
 Gap=     0.088 Goal=   None    Shift=    0.000
 Gap=     0.225 Goal=   None    Shift=    0.000
 RMSDP=7.00D-05 MaxDP=2.97D-03 DE=-3.15D-05 OVMax= 1.96D-04

 Cycle   6  Pass 1  IDiag  1:
 RMSU=  1.55D-05    CP:  1.27D+00  1.02D+00  2.35D-01  8.50D-01  1.07D+00
 E= -827.049515865499     Delta-E=       -0.000000737380 Rises=F Damp=F
 DIIS: error= 1.52D-05 at cycle   6 NSaved=   6.
 NSaved= 6 IEnMin= 6 EnMin= -827.049515865499     IErMin= 6 ErrMin= 1.52D-05
 ErrMax= 1.52D-05  0.00D+00 EMaxC= 1.00D-01 BMatC= 7.47D-08 BMatP= 3.26D-06
 IDIUse=1 WtCom= 1.00D+00 WtEn= 0.00D+00
 Coeff-Com:  0.155D-03-0.646D-02-0.505D-02-0.638D-02-0.267D-01 0.104D+01
 Coeff:      0.155D-03-0.646D-02-0.505D-02-0.638D-02-0.267D-01 0.104D+01
 Gap=     0.088 Goal=   None    Shift=    0.000
 Gap=     0.225 Goal=   None    Shift=    0.000
 RMSDP=7.49D-06 MaxDP=3.57D-04 DE=-7.37D-07 OVMax= 2.46D-04

 Cycle   7  Pass 1  IDiag  1:
 RMSU=  2.43D-06    CP:  1.27D+00  1.02D+00  2.35D-01  8.57D-01  1.16D+00
                    CP:  1.31D+00
 E= -827.049515903811     Delta-E=       -0.000000038312 Rises=F Damp=F
 DIIS: error= 3.85D-06 at cycle   7 NSaved=   7.
 NSaved= 7 IEnMin= 7 EnMin= -827.049515903811     IErMin= 7 ErrMin= 3.85D-06
 ErrMax= 3.85D-06  0.00D+00 EMaxC= 1.00D-01 BMatC= 6.39D-09 BMatP= 7.47D-08
 IDIUse=1 WtCom= 1.00D+00 WtEn= 0.00D+00
 Coeff-Com:  0.698D-04 0.491D-03-0.841D-03-0.210D-02-0.478D-01-0.241D+00
 Coeff-Com:  0.129D+01
 Coeff:      0.698D-04 0.491D-03-0.841D-03-0.210D-02-0.478D-01-0.241D+00
 Coeff:      0.129D+01
 Gap=     0.088 Goal=   None    Shift=    0.000
 Gap=     0.225 Goal=   None    Shift=    0.000
 RMSDP=4.01D-06 MaxDP=1.74D-04 DE=-3.83D-08 OVMax= 8.63D-05

 Cycle   8  Pass 1  IDiag  1:
 RMSU=  6.58D-07    CP:  1.27D+00  1.02D+00  2.36D-01  8.57D-01  1.18D+00
                    CP:  1.44D+00  1.38D+00
 E= -827.049515907332     Delta-E=       -0.000000003521 Rises=F Damp=F
 DIIS: error= 9.21D-07 at cycle   8 NSaved=   8.
 NSaved= 8 IEnMin= 8 EnMin= -827.049515907332     IErMin= 8 ErrMin= 9.21D-07
 ErrMax= 9.21D-07  0.00D+00 EMaxC= 1.00D-01 BMatC= 2.91D-10 BMatP= 6.39D-09
 IDIUse=1 WtCom= 1.00D+00 WtEn= 0.00D+00
 Coeff-Com:  0.128D-05 0.275D-03 0.216D-03-0.181D-03-0.154D-02-0.606D-01
 Coeff-Com:  0.876D-01 0.974D+00
 Coeff:      0.128D-05 0.275D-03 0.216D-03-0.181D-03-0.154D-02-0.606D-01
 Coeff:      0.876D-01 0.974D+00
 Gap=     0.088 Goal=   None    Shift=    0.000
 Gap=     0.225 Goal=   None    Shift=    0.000
 RMSDP=3.89D-07 MaxDP=1.87D-05 DE=-3.52D-09 OVMax= 8.71D-06

 Cycle   9  Pass 1  IDiag  1:
 RMSU=  1.47D-07    CP:  1.27D+00  1.02D+00  2.36D-01  8.57D-01  1.19D+00
                    CP:  1.45D+00  1.44D+00  1.18D+00
 E= -827.049515907428     Delta-E=       -0.000000000096 Rises=F Damp=F
 DIIS: error= 2.66D-07 at cycle   9 NSaved=   9.
 NSaved= 9 IEnMin= 9 EnMin= -827.049515907428     IErMin= 9 ErrMin= 2.66D-07
 ErrMax= 2.66D-07  0.00D+00 EMaxC= 1.00D-01 BMatC= 6.55D-11 BMatP= 2.91D-10
 IDIUse=1 WtCom= 1.00D+00 WtEn= 0.00D+00
 Coeff-Com: -0.428D-05 0.836D-04 0.154D-03 0.265D-04 0.306D-02-0.594D-02
 Coeff-Com: -0.638D-01 0.378D+00 0.689D+00
 Coeff:     -0.428D-05 0.836D-04 0.154D-03 0.265D-04 0.306D-02-0.594D-02
 Coeff:     -0.638D-01 0.378D+00 0.689D+00
 Gap=     0.088 Goal=   None    Shift=    0.000
 Gap=     0.225 Goal=   None    Shift=    0.000
 RMSDP=1.24D-07 MaxDP=6.22D-06 DE=-9.57D-11 OVMax= 2.88D-06

 Cycle  10  Pass 1  IDiag  1:
 RMSU=  7.88D-08    CP:  1.27D+00  1.02D+00  2.36D-01  8.57D-01  1.19D+00
                    CP:  1.45D+00  1.45D+00  1.24D+00  6.63D-01
 E= -827.049515907442     Delta-E=       -0.000000000015 Rises=F Damp=F
 DIIS: error= 1.69D-07 at cycle  10 NSaved=  10.
 NSaved=10 IEnMin=10 EnMin= -827.049515907442     IErMin=10 ErrMin= 1.69D-07
 ErrMax= 1.69D-07  0.00D+00 EMaxC= 1.00D-01 BMatC= 2.21D-11 BMatP= 6.55D-11
 IDIUse=1 WtCom= 1.00D+00 WtEn= 0.00D+00
 Coeff-Com: -0.256D-05 0.875D-05 0.512D-04 0.285D-04 0.210D-02 0.554D-02
 Coeff-Com: -0.494D-01 0.630D-01 0.403D+00 0.576D+00
 Coeff:     -0.256D-05 0.875D-05 0.512D-04 0.285D-04 0.210D-02 0.554D-02
 Coeff:     -0.494D-01 0.630D-01 0.403D+00 0.576D+00
 Gap=     0.088 Goal=   None    Shift=    0.000
 Gap=     0.225 Goal=   None    Shift=    0.000
 RMSDP=4.40D-08 MaxDP=1.77D-06 DE=-1.46D-11 OVMax= 1.31D-06

 Cycle  11  Pass 1  IDiag  1:
 RMSU=  1.45D-08    CP:  1.27D+00  1.02D+00  2.36D-01  8.57D-01  1.19D+00
                    CP:  1.45D+00  1.45D+00  1.25D+00  8.94D-01  7.53D-01
 E= -827.049515907453     Delta-E=       -0.000000000011 Rises=F Damp=F
 DIIS: error= 3.11D-08 at cycle  11 NSaved=  11.
 NSaved=11 IEnMin=11 EnMin= -827.049515907453     IErMin=11 ErrMin= 3.11D-08
 ErrMax= 3.11D-08  0.00D+00 EMaxC= 1.00D-01 BMatC= 6.03D-13 BMatP= 2.21D-11
 IDIUse=1 WtCom= 1.00D+00 WtEn= 0.00D+00
 Coeff-Com:  0.250D-06-0.104D-04-0.195D-04-0.802D-05 0.268D-04 0.101D-02
 Coeff-Com:  0.295D-02-0.395D-01-0.271D-01 0.726D-01 0.990D+00
 Coeff:      0.250D-06-0.104D-04-0.195D-04-0.802D-05 0.268D-04 0.101D-02
 Coeff:      0.295D-02-0.395D-01-0.271D-01 0.726D-01 0.990D+00
 Gap=     0.088 Goal=   None    Shift=    0.000
 Gap=     0.225 Goal=   None    Shift=    0.000
 RMSDP=4.99D-08 MaxDP=1.94D-06 DE=-1.09D-11 OVMax= 6.46D-07

 Cycle  12  Pass 1  IDiag  1:
 RMSU=  1.28D-08    CP:  1.27D+00  1.02D+00  2.36D-01  8.57D-01  1.19D+00
                    CP:  1.45D+00  1.45D+00  1.25D+00  9.01D-01  8.31D-01
                    CP:  1.51D+00
 E= -827.049515907452     Delta-E=        0.000000000001 Rises=F Damp=F
 DIIS: error= 2.75D-09 at cycle  12 NSaved=  12.
 NSaved=12 IEnMin=11 EnMin= -827.049515907453     IErMin=12 ErrMin= 2.75D-09
 ErrMax= 2.75D-09  0.00D+00 EMaxC= 1.00D-01 BMatC= 3.72D-15 BMatP= 6.03D-13
 IDIUse=1 WtCom= 1.00D+00 WtEn= 0.00D+00
 Coeff-Com:  0.564D-07 0.135D-06-0.341D-06-0.242D-05-0.321D-04-0.198D-03
 Coeff-Com:  0.921D-03 0.701D-03-0.805D-02-0.157D-01-0.320D-01 0.105D+01
 Coeff:      0.564D-07 0.135D-06-0.341D-06-0.242D-05-0.321D-04-0.198D-03
 Coeff:      0.921D-03 0.701D-03-0.805D-02-0.157D-01-0.320D-01 0.105D+01
 Gap=     0.088 Goal=   None    Shift=    0.000
 Gap=     0.225 Goal=   None    Shift=    0.000
 RMSDP=1.40D-08 MaxDP=7.18D-07 DE= 9.09D-13 OVMax= 7.23D-08

 Cycle  13  Pass 1  IDiag  1:
 RMSU=  4.05D-09    CP:  1.27D+00  1.02D+00  2.36D-01  8.57D-01  1.19D+00
                    CP:  1.45D+00  1.45D+00  1.25D+00  9.09D-01  8.32D-01
                    CP:  1.19D+00  3.40D-02
 E= -827.049515907450     Delta-E=        0.000000000002 Rises=F Damp=F
 DIIS: error= 1.98D-09 at cycle  13 NSaved=  13.
 NSaved=13 IEnMin=11 EnMin= -827.049515907453     IErMin=13 ErrMin= 1.98D-09
 ErrMax= 1.98D-09  0.00D+00 EMaxC= 1.00D-01 BMatC= 1.55D-15 BMatP= 3.72D-15
 IDIUse=1 WtCom= 1.00D+00 WtEn= 0.00D+00
 Coeff-Com:  0.213D-07 0.415D-06 0.414D-06-0.116D-05-0.178D-04-0.136D-03
 Coeff-Com:  0.410D-03 0.150D-02-0.336D-02-0.104D-01-0.465D-01 0.556D+00
 Coeff-Com:  0.502D+00
 Coeff:      0.213D-07 0.415D-06 0.414D-06-0.116D-05-0.178D-04-0.136D-03
 Coeff:      0.410D-03 0.150D-02-0.336D-02-0.104D-01-0.465D-01 0.556D+00
 Coeff:      0.502D+00
 Gap=     0.088 Goal=   None    Shift=    0.000
 Gap=     0.225 Goal=   None    Shift=    0.000
 RMSDP=1.68D-09 MaxDP=8.27D-08 DE= 2.05D-12 OVMax= 9.48D-09

 SCF Done:  E(UPBE1PBE) =  -827.049515907     A.U. after   13 cycles
            NFock= 13  Conv=0.17D-08     -V/T= 2.0023
 <Sx>= 0.0000 <Sy>= 0.0000 <Sz>= 0.5000 <S**2>= 0.7505 S= 0.5003
 <L.S>=  0.00000000000    
 KE= 8.251331807669D+02 PE=-3.436377332432D+03 EE= 1.053679596292D+03
 Annihilation of the first spin contaminant:
 S**2 before annihilation     0.7505,   after     0.7500
 Leave Link  502 at Thu Jan 30 14:33:45 2025, MaxMem=   104857600 cpu:              76.2 elap:              76.4
 (Enter /sw/cluster/pub/apps//g16/l701.exe)
 ... and contract with generalized density number  0.
 Compute integral first derivatives.
 Leave Link  701 at Thu Jan 30 14:33:46 2025, MaxMem=   104857600 cpu:               0.1 elap:               0.1
 (Enter /sw/cluster/pub/apps//g16/l702.exe)
 L702 exits ... SP integral derivatives will be done elsewhere.
 Leave Link  702 at Thu Jan 30 14:33:46 2025, MaxMem=   104857600 cpu:               0.0 elap:               0.0
 (Enter /sw/cluster/pub/apps//g16/l703.exe)
 Integral derivatives from FoFJK, PRISM(SPDF).
 Compute integral first derivatives, UseDBF=F ICtDFT=           0.
 Calling FoFJK, ICntrl=      2127 FMM=F ISym2X=0 I1Cent= 0 IOpClX= 1 NMat=1 NMatS=1 NMatT=0.
 FoFJK:  IHMeth= 1 ICntrl=    2127 DoSepK=F KAlg= 0 I1Cent=           0 FoldK=F
 IRaf=         0 NMat=       1 IRICut=       1 DoRegI=T DoRafI=F ISym2E= 0 IDoP0=0 IntGTp=1.
 FoFCou: FMM=F IPFlag=           0 FMFlag=      100000 FMFlg1=         800
         NFxFlg=           0 DoJE=F BraDBF=F KetDBF=F FulRan=T
         wScrn=  0.000000 ICntrl=      2127 IOpCl=  1 I1Cent=           0 NGrid=           0
         NMat0=    1 NMatS0=      1 NMatT0=    0 NMatD0=    1 NMtDS0=    0 NMtDT0=    0
 Symmetry not used in FoFCou.
 Leave Link  703 at Thu Jan 30 14:34:05 2025, MaxMem=   104857600 cpu:              19.6 elap:              19.6
 (Enter /sw/cluster/pub/apps//g16/l716.exe)
 Dipole        =-7.25072705D-09 1.33512756D-09-6.99172449D-12
 -------------------------------------------------------------------
 Center     Atomic                   Forces (Hartrees/Bohr)
 Number     Number              X              Y              Z
 -------------------------------------------------------------------
      1        6          -0.004671161   -0.002696775    0.000000000
      2        6          -0.004671161    0.002696775   -0.000000000
      3        6          -0.000000000    0.005395629    0.000000000
      4        6           0.004671161    0.002696775   -0.000000000
      5        6           0.004671161   -0.002696775    0.000000000
      6        6          -0.000000000   -0.005395629   -0.000000000
      7        9           0.007287373    0.004207562    0.000000000
      8        9           0.007287373   -0.004207562    0.000000000
      9        9           0.000000000   -0.008416910   -0.000000000
     10        9          -0.007287373   -0.004207562    0.000000000
     11        9          -0.007287373    0.004207562   -0.000000000
[...]
    R9        2.60591  -0.00002   0.00000  -0.00015  -0.00015   2.60576
   R10        2.59825   0.00017   0.00000   0.00033   0.00033   2.59858
   R11        2.60591  -0.00002   0.00000  -0.00015  -0.00015   2.60576
   R12        2.60591  -0.00002   0.00000  -0.00015  -0.00015   2.60576
    A1        2.09439  -0.00000   0.00000  -0.00000  -0.00000   2.09439
    A2        2.09440   0.00000   0.00000   0.00000   0.00000   2.09440
    A3        2.09439   0.00000   0.00000   0.00000   0.00000   2.09439
    A4        2.09439  -0.00000   0.00000  -0.00000  -0.00000   2.09439
    A5        2.09440   0.00000   0.00000   0.00000   0.00000   2.09440
    A6        2.09439   0.00000   0.00000   0.00000   0.00000   2.09439
    A7        2.09441   0.00000   0.00000   0.00000   0.00000   2.09441
    A8        2.09439  -0.00000   0.00000  -0.00000  -0.00000   2.09439
    A9        2.09439  -0.00000   0.00000  -0.00000  -0.00000   2.09439
   A10        2.09439  -0.00000   0.00000  -0.00000  -0.00000   2.09439
   A11        2.09439   0.00000   0.00000   0.00000   0.00000   2.09439
   A12        2.09440   0.00000   0.00000   0.00000   0.00000   2.09440
   A13        2.09439  -0.00000   0.00000  -0.00000  -0.00000   2.09439
   A14        2.09440   0.00000   0.00000   0.00000   0.00000   2.09440
   A15        2.09439   0.00000   0.00000   0.00000   0.00000   2.09439
   A16        2.09441   0.00000   0.00000   0.00000   0.00000   2.09441
   A17        2.09439  -0.00000   0.00000  -0.00000  -0.00000   2.09439
   A18        2.09439  -0.00000   0.00000  -0.00000  -0.00000   2.09439
    D1        0.00000  -0.00000   0.00000  -0.00000  -0.00000   0.00000
    D2        3.14159   0.00000   0.00000   0.00000   0.00000   3.14159
    D3        3.14159  -0.00000   0.00000  -0.00000   0.00000   3.14159
    D4       -0.00000   0.00000   0.00000   0.00000   0.00000   0.00000
    D5       -0.00000   0.00000   0.00000   0.00000   0.00000   0.00000
    D6        3.14159   0.00000   0.00000   0.00000   0.00000   3.14159
    D7        3.14159   0.00000   0.00000   0.00000   0.00000   3.14159
    D8        0.00000   0.00000   0.00000   0.00000   0.00000   0.00000
    D9       -0.00000   0.00000   0.00000   0.00000   0.00000   0.00000
   D10        3.14159   0.00000   0.00000   0.00000   0.00000   3.14159
   D11        3.14159  -0.00000   0.00000  -0.00000   0.00000   3.14159
   D12        0.00000  -0.00000   0.00000  -0.00000  -0.00000   0.00000
   D13        0.00000   0.00000   0.00000  -0.00000  -0.00000   0.00000
   D14        3.14159   0.00000   0.00000   0.00000   0.00000   3.14159
   D15        3.14159   0.00000   0.00000  -0.00000   0.00000   3.14159
   D16        0.00000   0.00000   0.00000   0.00000   0.00000   0.00000
   D17       -0.00000  -0.00000   0.00000   0.00000   0.00000   0.00000
   D18        3.14159  -0.00000   0.00000  -0.00000   0.00000   3.14159
   D19        3.14159  -0.00000   0.00000  -0.00000   0.00000   3.14159
   D20        0.00000  -0.00000   0.00000  -0.00000  -0.00000   0.00000
   D21        0.00000  -0.00000   0.00000  -0.00000  -0.00000   0.00000
   D22        3.14159  -0.00000   0.00000  -0.00000   0.00000   3.14159
   D23        3.14159  -0.00000   0.00000  -0.00000   0.00000   3.14159
   D24       -0.00000  -0.00000   0.00000   0.00000   0.00000   0.00000
         Item               Value     Threshold  Converged?
 Maximum Force            0.000174     0.000450     YES
 RMS     Force            0.000058     0.000300     YES
 Maximum Displacement     0.000333     0.001800     YES
 RMS     Displacement     0.000128     0.001200     YES
 Predicted change in Energy=-1.825517D-07
 Optimization completed.
    -- Stationary point found.
                           ----------------------------
                           !   Optimized Parameters   !
                           ! (Angstroms and Degrees)  !
 --------------------------                            --------------------------
 ! Name  Definition              Value          Derivative Info.                !
 --------------------------------------------------------------------------------
 ! R1    R(1,2)                  1.3749         -DE/DX =    0.0002              !
 ! R2    R(1,6)                  1.3749         -DE/DX =    0.0002              !
 ! R3    R(1,7)                  1.379          -DE/DX =    0.0                 !
 ! R4    R(2,3)                  1.3749         -DE/DX =    0.0002              !
 ! R5    R(2,8)                  1.379          -DE/DX =    0.0                 !
 ! R6    R(3,4)                  1.3749         -DE/DX =    0.0002              !
 ! R7    R(3,9)                  1.379          -DE/DX =    0.0                 !
 ! R8    R(4,5)                  1.3749         -DE/DX =    0.0002              !
 ! R9    R(4,10)                 1.379          -DE/DX =    0.0                 !
 ! R10   R(5,6)                  1.3749         -DE/DX =    0.0002              !
 ! R11   R(5,11)                 1.379          -DE/DX =    0.0                 !
 ! R12   R(6,12)                 1.379          -DE/DX =    0.0                 !
 ! A1    A(2,1,6)              119.9995         -DE/DX =    0.0                 !
 ! A2    A(2,1,7)              120.0005         -DE/DX =    0.0                 !
 ! A3    A(6,1,7)              119.9999         -DE/DX =    0.0                 !
 ! A4    A(1,2,3)              119.9995         -DE/DX =    0.0                 !
 ! A5    A(1,2,8)              120.0005         -DE/DX =    0.0                 !
 ! A6    A(3,2,8)              119.9999         -DE/DX =    0.0                 !
 ! A7    A(2,3,4)              120.0009         -DE/DX =    0.0                 !
 ! A8    A(2,3,9)              119.9995         -DE/DX =    0.0                 !
 ! A9    A(4,3,9)              119.9995         -DE/DX =    0.0                 !
 ! A10   A(3,4,5)              119.9995         -DE/DX =    0.0                 !
 ! A11   A(3,4,10)             119.9999         -DE/DX =    0.0                 !
 ! A12   A(5,4,10)             120.0005         -DE/DX =    0.0                 !
 ! A13   A(4,5,6)              119.9995         -DE/DX =    0.0                 !
 ! A14   A(4,5,11)             120.0005         -DE/DX =    0.0                 !
 ! A15   A(6,5,11)             119.9999         -DE/DX =    0.0                 !
 ! A16   A(1,6,5)              120.0009         -DE/DX =    0.0                 !
 ! A17   A(1,6,12)             119.9995         -DE/DX =    0.0                 !
 ! A18   A(5,6,12)             119.9995         -DE/DX =    0.0                 !
 ! D1    D(6,1,2,3)              0.0            -DE/DX =    0.0                 !
 ! D2    D(6,1,2,8)            180.0            -DE/DX =    0.0                 !
 ! D3    D(7,1,2,3)            180.0            -DE/DX =    0.0                 !
 ! D4    D(7,1,2,8)              0.0            -DE/DX =    0.0                 !
 ! D5    D(2,1,6,5)              0.0            -DE/DX =    0.0                 !
 ! D6    D(2,1,6,12)           180.0            -DE/DX =    0.0                 !
 ! D7    D(7,1,6,5)            180.0            -DE/DX =    0.0                 !
 ! D8    D(7,1,6,12)             0.0            -DE/DX =    0.0                 !
 ! D9    D(1,2,3,4)              0.0            -DE/DX =    0.0                 !
 ! D10   D(1,2,3,9)            180.0            -DE/DX =    0.0                 !
 ! D11   D(8,2,3,4)            180.0            -DE/DX =    0.0                 !
 ! D12   D(8,2,3,9)              0.0            -DE/DX =    0.0                 !
 ! D13   D(2,3,4,5)              0.0            -DE/DX =    0.0                 !
 ! D14   D(2,3,4,10)           180.0            -DE/DX =    0.0                 !
 ! D15   D(9,3,4,5)            180.0            -DE/DX =    0.0                 !
 ! D16   D(9,3,4,10)             0.0            -DE/DX =    0.0                 !
 ! D17   D(3,4,5,6)              0.0            -DE/DX =    0.0                 !
 ! D18   D(3,4,5,11)           180.0            -DE/DX =    0.0                 !
 ! D19   D(10,4,5,6)           180.0            -DE/DX =    0.0                 !
 ! D20   D(10,4,5,11)            0.0            -DE/DX =    0.0                 !
 ! D21   D(4,5,6,1)              0.0            -DE/DX =    0.0                 !
 ! D22   D(4,5,6,12)           180.0            -DE/DX =    0.0                 !
 ! D23   D(11,5,6,1)           180.0            -DE/DX =    0.0                 !
 ! D24   D(11,5,6,12)            0.0            -DE/DX =    0.0                 !
 --------------------------------------------------------------------------------
 GradGradGradGradGradGradGradGradGradGradGradGradGradGradGradGradGradGrad

 Leave Link  103 at Thu Jan 30 14:47:20 2025, MaxMem=   104857600 cpu:               0.0 elap:               0.0
 (Enter /sw/cluster/pub/apps//g16/l9999.exe)

 ----------------------------------------------------------------------

 Electric dipole moment (input orientation):
 (Debye = 10**-18 statcoulomb cm , SI units = C m)
                  (au)            (Debye)         (10**-30 SI)
   Tot        0.000000D+00      0.000000D+00      0.000000D+00
   x          0.000000D+00      0.000000D+00      0.000000D+00
   y          0.000000D+00      0.000000D+00      0.000000D+00
   z          0.000000D+00      0.000000D+00      0.000000D+00

 Dipole polarizability, Alpha (input orientation).
 (esu units = cm**3 , SI units = C**2 m**2 J**-1)
 Alpha(0;0):
               (au)            (10**-24 esu)      (10**-40 SI)
   iso        0.183992D+03      0.272648D+02      0.303362D+02
   aniso      0.131239D+03      0.194475D+02      0.216383D+02
   xx         0.227607D+03      0.337279D+02      0.375274D+02
   yx         0.000000D+00      0.000000D+00      0.000000D+00
   yy         0.227869D+03      0.337667D+02      0.375705D+02
   zx         0.000000D+00      0.000000D+00      0.000000D+00
   zy         0.000000D+00      0.000000D+00      0.000000D+00
   zz         0.964999D+02      0.142998D+02      0.159107D+02

 ----------------------------------------------------------------------

 Dipole orientation:
     6          0.31004707          1.66020794          1.97446267
     6         -0.15709527         -0.85108746          2.44987625
     6         -0.46713983         -2.51128189          0.47541104
     6         -0.31004707         -1.66020795         -1.97446264
     6          0.15709527          0.85108747         -2.44987623
     6          0.46713983          2.51128189         -0.47541101
     9          0.62101222          3.32533206          3.95472138
     9         -0.31465909         -1.70471305          4.90695972
     9         -0.93566086         -5.02998898          0.95222770
     9         -0.62101222         -3.32533205         -3.95472141
     9          0.31465909          1.70471305         -4.90695975
     9          0.93566086          5.02998898         -0.95222773

 Electric dipole moment (dipole orientation):
 (Debye = 10**-18 statcoulomb cm , SI units = C m)
                  (au)            (Debye)         (10**-30 SI)
   Tot        0.000000D+00      0.000000D+00      0.000000D+00
   x          0.000000D+00      0.000000D+00      0.000000D+00
   y          0.000000D+00      0.000000D+00      0.000000D+00
   z          0.000000D+00      0.000000D+00      0.000000D+00

 Dipole polarizability, Alpha (dipole orientation).
 (esu units = cm**3 , SI units = C**2 m**2 J**-1)
 Alpha(0;0):
               (au)            (10**-24 esu)      (10**-40 SI)
   iso        0.183992D+03      0.272648D+02      0.303362D+02
   aniso      0.131239D+03      0.194475D+02      0.216383D+02
   xx         0.100898D+03      0.149515D+02      0.166358D+02
   yx         0.236299D+02      0.350159D+01      0.389604D+01
   yy         0.223462D+03      0.331137D+02      0.368439D+02
   zx         0.590017D-01      0.874315D-02      0.972807D-02
   zy        -0.588196D-01     -0.871617D-02     -0.969805D-02
   zz         0.227616D+03      0.337292D+02      0.375288D+02

 ----------------------------------------------------------------------
 1\1\GINC-N11\Freq\UPBE1PBE\6-311++G(d,p)\C6F6(1-,2)\UNKNOWN\30-Jan-202
 5\0\\#P Geom=AllCheck Guess=TCheck SCRF=Check GenChk UPBE1PBE/6-311++G
 (d,p) Freq\\HFB SP\\-1,2\C,1.1907323615,0.6874643678,-0.0000000003\C,1
 .1907323609,-0.6874643708,0.0000000013\C,0.0000000088,-1.3749213404,0.
 0000000006\C,-1.1907323489,-0.687464374,0.0000000001\C,-1.1907323495,0
 .6874643711,-0.0000000001\C,0.0000000088,1.3749213385,0.0000000007\F,2
 .3849643261,1.3769693478,-0.0000000004\F,2.3849643262,-1.3769693451,-0
 .0000000003\F,-0.0000000072,-2.7539079627,-0.0000000006\F,-2.384964339
 9,-1.3769693448,-0.0000000006\F,-2.3849643398,1.3769693474,0.000000000
 4\F,-0.0000000072,2.7539079652,-0.0000000007\\Version=ES64L-G16RevA.03
 \HF=-827.0502879\S2=0.750617\S2-1=0.\S2A=0.75\RMSD=7.647e-09\RMSF=7.89
 3e-05\ZeroPoint=0.0452732\Thermal=0.0544894\Dipole=0.0000014,-0.000000
 3,0.\DipoleDeriv=1.7461996,1.3760105,0.,1.3766089,0.1568397,0.,0.,0.,0
 .0125928,1.7461997,-1.3760106,0.,-1.3766089,0.1568397,0.,0.,0.,0.01259
 28,-0.6372707,0.0000004,0.,-0.0000001,2.5417623,0.,0.,0.,0.011543,1.74
 61992,1.3760103,0.,1.376608,0.1568396,0.,0.,0.,0.0125929,1.7461992,-1.
 3760102,0.,-1.376608,0.1568396,0.,0.,0.,0.0125929,-0.6372706,-0.000000
 4,0.,0.0000001,2.5417621,0.,0.,0.,0.011543,-1.7071354,-1.019818,0.,-1.
 0200469,-0.5296831,0.,0.,0.,-0.1792059,-1.7071354,1.0198181,0.,1.02004
 69,-0.5296832,0.,0.,0.,-0.1792059,0.0591421,-0.0000002,0.,0.0000003,-2
 .2960753,0.,0.,0.,-0.1783169,-1.707135,-1.0198182,0.,-1.0200464,-0.529
 6831,0.,0.,0.,-0.179206,-1.707135,1.0198181,0.,1.0200464,-0.5296831,0.
 ,0.,0.,-0.179206,0.0591421,0.0000002,0.,-0.0000003,-2.2960752,0.,0.,0.
 ,-0.1783169\Polar=227.6074683,0.,227.8689154,0.,0.,96.4998654\Quadrupo
 le=-5.6402113,-5.6404581,11.2806695,0.,0.,0.\PG=CS [SG(C6F6)]\NImag=2\
 \0.56544753,-0.10595255,0.68784180,0.,0.,0.06397498,-0.08805840,0.0179
 7515,0.,0.56544756,-0.01797513,-0.35205418,0.,0.10595253,0.68784185,0.
 ,0.,-0.01801068,0.,0.,0.06397502,0.04845457,-0.06770317,0.,-0.28604930
 ,-0.09634127,0.,0.74895874,-0.04025878,-0.01389830,0.,-0.13227891,-0.1
 5404146,0.,-0.00000007,0.50429413,0.,0.,0.02264782,0.,0.,-0.01801121,0
 .,0.,0.06397544,-0.04194876,0.02578869,0.,-0.04507332,-0.01371345,0.,-
 0.28604908,0.13227908,0.,0.56544702,0.02578879,-0.07178448,0.,0.013713
 32,0.07962241,0.,0.09634138,-0.15404144,0.,-0.10595265,0.68784162,0.,0
 .,-0.06064612,0.,0.,0.02267204,0.,0.,-0.01801105,0.,0.,0.06397463,-0.0
 4507331,0.01371347,0.,-0.04194876,-0.02578871,0.,0.04845443,0.04025866
 ,0.,-0.08805802,0.01797517,0.,0.56544699,-0.01371334,0.07962239,0.,-0.
 02578877,-0.07178448,0.,0.06770324,-0.01389827,0.,-0.01797520,-0.35205
 406,0.,0.10595266,0.68784157,0.,0.,0.02267201,0.,0.,-0.06064612,0.,0.,
 0.02264769,0.,0.,-0.01801035,0.,0.,0.06397459,-0.28604929,0.09634127,0
 .,0.04845457,0.06770317,0.,-0.08665195,0.00000007,0.,0.04845443,-0.067
 70323,0.,-0.28604906,-0.09634138,0.,0.74895870,0.13227893,-0.15404139,
 0.,0.04025876,-0.01389832,0.,-0.00000007,-0.02709129,0.,-0.04025864,-0
 .01389829,0.,-0.13227909,-0.15404138,0.,0.00000007,0.50429401,0.,0.,-0
 .01801115,0.,0.,0.02264780,0.,0.,-0.06060887,0.,0.,0.02264767,0.,0.,-0
 .01801099,0.,0.,0.06397535,-0.13745556,-0.04660242,0.,-0.01345613,-0.0
 2756473,0.,-0.01277870,0.01149599,0.,0.01428818,0.00548351,0.,-0.00396
 276,-0.01154553,0.,-0.05481033,-0.00741131,0.,0.19855686,-0.04659817,-
 0.08366526,0.,-0.03128269,-0.03461618,0.,-0.00644963,-0.00393458,0.,0.
 00547886,0.00797523,0.,0.00640858,-0.01275876,0.,-0.00370102,0.0067341
 5,0.,0.08339927,0.10227713,0.,0.,0.00581937,0.,0.,-0.01875819,0.,0.,-0
 .00997991,0.,0.,0.03902862,0.,0.,-0.00998767,0.,0.,-0.01874827,0.,0.,-
 0.00505469,-0.01345613,0.02756473,0.,-0.13745558,0.04660242,0.,-0.0548
 1033,0.00741132,0.,-0.00396276,0.01154552,0.,0.01428818,-0.00548351,0.
 ,-0.01277870,-0.01149599,0.,0.00667253,-0.00485451,0.,0.19855688,0.031
 28269,-0.03461619,0.,0.04659818,-0.08366525,0.,0.00370102,0.00673414,0
 .,-0.00640858,-0.01275876,0.,-0.00547886,0.00797523,0.,0.00644963,-0.0
 0393458,0.,0.00485451,0.00697181,0.,-0.08339927,0.10227713,0.,0.,-0.01
 875818,0.,0.,0.00581936,0.,0.,-0.01874826,0.,0.,-0.00998767,0.,0.,0.03
 902862,0.,0.,-0.00997991,0.,0.,0.01143392,0.,0.,-0.00505469,-0.0083341
 3,-0.00388260,0.,-0.00385194,-0.02572839,0.,-0.05674622,0.,0.,-0.00385
 195,0.02572839,0.,-0.00833413,0.00388260,0.,0.00480689,0.,0.,0.0045631
 0,0.00294736,0.,0.00689989,-0.00473510,0.,0.05411337,0.01405559,-0.008
 37294,0.,-0.02202168,-0.04424790,0.,-0.00000004,-0.16437920,0.,0.02202
 172,-0.04424790,0.,-0.01405562,-0.00837295,0.,0.00000002,0.01745670,0.
 ,-0.00353201,0.00422001,0.,0.00498067,0.00673939,0.,0.00000001,0.24676
 054,0.,0.,-0.00997989,0.,0.,-0.01874908,0.,0.,0.00579898,0.,0.,-0.0187
 4908,0.,0.,-0.00997987,0.,0.,0.03901756,0.,0.,0.00938814,0.,0.,0.01143
 285,0.,0.,-0.00504035,0.01428821,0.00548351,0.,-0.00396278,-0.01154553
 ,0.,-0.05481031,-0.00741134,0.,-0.13745550,-0.04660233,0.,-0.01345612,
 -0.02756473,0.,-0.01277874,0.01149600,0.,-0.01256883,-0.00683987,0.,0.
 00405176,0.00324327,0.,0.00689989,-0.00498067,0.,0.19855679,0.00547887
 ,0.00797523,0.,0.00640856,-0.01275876,0.,-0.00370102,0.00673414,0.,-0.
 04659813,-0.08366519,0.,-0.03128268,-0.03461619,0.,-0.00644965,-0.0039
 3457,0.,-0.00683987,-0.00467823,0.,-0.00324326,0.00473530,0.,0.0047351
 0,0.00673939,0.,0.08339922,0.10227708,0.,0.,0.03902858,0.,0.,-0.009987
 64,0.,0.,-0.01874831,0.,0.,0.00581942,0.,0.,-0.01875823,0.,0.,-0.00997
 986,0.,0.,-0.02396454,0.,0.,0.00939037,0.,0.,0.01143285,0.,0.,-0.00505
 469,-0.00396278,0.01154554,0.,0.01428821,-0.00548351,0.,-0.01277874,-0
 .01149599,0.,-0.01345612,0.02756473,0.,-0.13745548,0.04660234,0.,-0.05
 481031,0.00741133,0.,0.00405176,-0.00324327,0.,-0.01256883,0.00683987,
 0.,0.00456310,0.00353201,0.,0.00667252,-0.00485450,0.,0.19855678,-0.00
 640856,-0.01275877,0.,-0.00547887,0.00797523,0.,0.00644965,-0.00393457
 ,0.,0.03128268,-0.03461618,0.,0.04659812,-0.08366520,0.,0.00370102,0.0
 0673414,0.,0.00324326,0.00473530,0.,0.00683987,-0.00467823,0.,-0.00294
 736,0.00422000,0.,0.00485450,0.00697181,0.,-0.08339921,0.10227708,0.,0
 .,-0.00998763,0.,0.,0.03902858,0.,0.,-0.00997986,0.,0.,-0.01875824,0.,
 0.,0.00581943,0.,0.,-0.01874832,0.,0.,0.00939036,0.,0.,-0.02396454,0.,
 0.,0.00938812,0.,0.,0.01143393,0.,0.,-0.00505469,-0.00385194,0.0257283
 9,0.,-0.00833413,0.00388260,0.,0.00480689,0.,0.,-0.00833413,-0.0038826
 0,0.,-0.00385195,-0.02572839,0.,-0.05674622,0.,0.,0.00689989,0.0047351
 0,0.,0.00456309,-0.00294736,0.,-0.00072786,0.,0.,0.00456310,0.00294736
 ,0.,0.00689989,-0.00473510,0.,0.05411337,0.02202168,-0.04424790,0.,-0.
 01405559,-0.00837294,0.,-0.00000001,0.01745670,0.,0.01405562,-0.008372
 95,0.,-0.02202171,-0.04424790,0.,0.00000004,-0.16437917,0.,-0.00498067
 ,0.00673939,0.,0.00353201,0.00422001,0.,0.,-0.01651515,0.,-0.00353201,
 0.00422001,0.,0.00498067,0.00673939,0.,-0.00000001,0.24676052,0.,0.,-0
 .01874910,0.,0.,-0.00997988,0.,0.,0.03901755,0.,0.,-0.00997986,0.,0.,-
 0.01874910,0.,0.,0.00579899,0.,0.,0.01143285,0.,0.,0.00938813,0.,0.,-0
 .02396022,0.,0.,0.00938812,0.,0.,0.01143286,0.,0.,-0.00504035\\-0.0001
 6669,-0.00009642,0.,-0.00016669,0.00009643,0.,0.,0.00019220,0.,0.00016
 666,0.00009642,0.,0.00016666,-0.00009641,0.,0.,-0.00019220,0.,0.000016
 17,0.00000933,0.,0.00001617,-0.00000933,0.,0.,-0.00001868,0.,-0.000016
 14,-0.00000932,0.,-0.00001614,0.00000932,0.,0.,0.00001867,0.\\\@


 IT IS A QUALITY OF REVOLUTIONS NOT TO GO BY OLD LINES OR OLD LAWS,
 BUT TO BREAK UP BOTH, AND MAKE NEW ONES.
                                              -- A. LINCOLN (1848)
 Job cpu time:       0 days  0 hours 10 minutes 21.2 seconds.
 Elapsed time:       0 days  0 hours 10 minutes 22.0 seconds.
 File lengths (MBytes):  RWF=    204 Int=      0 D2E=      0 Chk=     10 Scr=      1
 Normal termination of Gaussian 16 at Thu Jan 30 14:47:20 2025.
