 Entering Gaussian System, Link 0=g16
 Initial command:
 /sw/cluster/pub/apps//g16/l1.exe "/data/natrosa/28102/Gau-2590474.inp" -scrdir="/data/natrosa/28102/"
 Entering Link 1 = /sw/cluster/pub/apps//g16/l1.exe PID=   2590475.
  
 Copyright (c) 1988,1990,1992,1993,1995,1998,2003,2009,2016,
            Gaussian, Inc.  All Rights Reserved.
  
 This is part of the Gaussian(R) 16 program.  It is based on
 the Gaussian(R) 09 system (copyright 2009, Gaussian, Inc.),
 the Gaussian(R) 03 system (copyright 2003, Gaussian, Inc.),
 the Gaussian(R) 98 system (copyright 1998, Gaussian, Inc.),
 the Gaussian(R) 94 system (copyright 1995, Gaussian, Inc.),
 the Gaussian 92(TM) system (copyright 1992, Gaussian, Inc.),
 the Gaussian 90(TM) system (copyright 1990, Gaussian, Inc.),
 the Gaussian 88(TM) system (copyright 1988, Gaussian, Inc.),
 the Gaussian 86(TM) system (copyright 1986, Carnegie Mellon
 University), and the Gaussian 82(TM) system (copyright 1983,
 Carnegie Mellon University). Gaussian is a federally registered
 trademark of Gaussian, Inc.
  
 This software contains proprietary and confidential information,
 including trade secrets, belonging to Gaussian, Inc.
  
 This software is provided under written license and may be
 used, copied, transmitted, or stored only in accord with that
 written license.
  
 The following legend is applicable only to US Government
 contracts under FAR:
  
                    RESTRICTED RIGHTS LEGEND
  
 Use, reproduction and disclosure by the US Government is
 subject to restrictions as set forth in subparagraphs (a)
 and (c) of the Commercial Computer Software - Restricted
 Rights clause in FAR 52.227-19.
  
 Gaussian, Inc.
 340 Quinnipiac St., Bldg. 40, Wallingford CT 06492
  
  
 ---------------------------------------------------------------
 Warning -- This program may not be used in any manner that
 competes with the business of Gaussian, Inc. or will provide
 assistance to any competitor of Gaussian, Inc.  The licensee
 of this program is prohibited from giving any competitor of
 Gaussian, Inc. access to this program.  By using this program,
 the user acknowledges that Gaussian, Inc. is engaged in the
 business of creating and licensing software in the field of
 computational chemistry and represents and warrants to the
 licensee that it is not a competitor of Gaussian, Inc. and that
 it will not use this program in any manner prohibited above.
 ---------------------------------------------------------------
  

 Cite this work as:
 Gaussian 16, Revision A.03,
 M. J. Frisch, G. W. Trucks, H. B. Schlegel, G. E. Scuseria, 
 M. A. Robb, J. R. Cheeseman, G. Scalmani, V. Barone, 
 G. A. Petersson, H. Nakatsuji, X. Li, M. Caricato, A. V. Marenich, 
 J. Bloino, B. G. Janesko, R. Gomperts, B. Mennucci, H. P. Hratchian, 
 J. V. Ortiz, A. F. Izmaylov, J. L. Sonnenberg, D. Williams-Young, 
 F. Ding, F. Lipparini, F. Egidi, J. Goings, B. Peng, A. Petrone, 
 T. Henderson, D. Ranasinghe, V. G. Zakrzewski, J. Gao, N. Rega, 
 G. Zheng, W. Liang, M. Hada, M. Ehara, K. Toyota, R. Fukuda, 
 J. Hasegawa, M. Ishida, T. Nakajima, Y. Honda, O. Kitao, H. Nakai, 
 T. Vreven, K. Throssell, J. A. Montgomery, Jr., J. E. Peralta, 
 F. Ogliaro, M. J. Bearpark, J. J. Heyd, E. N. Brothers, K. N. Kudin, 
 V. N. Staroverov, T. A. Keith, R. Kobayashi, J. Normand, 
 K. Raghavachari, A. P. Rendell, J. C. Burant, S. S. Iyengar, 
 J. Tomasi, M. Cossi, J. M. Millam, M. Klene, C. Adamo, R. Cammi, 
 J. W. Ochterski, R. L. Martin, K. Morokuma, O. Farkas, 
 J. B. Foresman, and D. J. Fox, Gaussian, Inc., Wallingford CT, 2016.
 
 ******************************************
 Gaussian 16:  ES64L-G16RevA.03 25-Dec-2016
                21-Jan-2025 
 ******************************************
 %chk=HFB.chk
 -----------------------------------------------
 #p PBE1PBE/6-311++G(d,p) density=current nosymm
 -----------------------------------------------
 1/30=1,38=1,172=1/1;
 2/12=2,15=1,17=6,18=5,40=1/2;
 3/5=4,6=6,7=1111,11=2,25=1,30=1,74=-13/1,2,3;
 4//1;
 5/5=2,38=5/2;
 6/7=2,8=2,9=2,10=2,22=-1,28=1/1;
 99/5=1,9=1/99;
 Leave Link    1 at Tue Jan 21 13:18:31 2025, MaxMem=           0 cpu:               0.0 elap:               0.0
 (Enter /sw/cluster/pub/apps//g16/l101.exe)
 ------
 HFB SP
 ------
 Symbolic Z-matrix:
 Charge =  0 Multiplicity = 1
 C                     1.23167   0.7111    0. 
 C                     1.23167  -0.7111    0. 
 C                     0.       -1.42221   0. 
 C                    -1.23167  -0.7111    0. 
 C                    -1.23167   0.7111    0. 
 C                     0.        1.42221   0. 
 F                     2.40708   1.38973   0. 
 F                     2.40708  -1.38973   0. 
 F                     0.       -2.77946   0. 
 F                    -2.40708  -1.38973   0. 
 F                    -2.40708   1.38973   0. 
 F                     0.        2.77946   0. 
 
 ITRead=  0  0  0  0  0  0  0  0  0  0  0  0
 MicOpt= -1 -1 -1 -1 -1 -1 -1 -1 -1 -1 -1 -1
 NAtoms=     12 NQM=       12 NQMF=       0 NMMI=      0 NMMIF=      0
                NMic=       0 NMicF=      0.
                    Isotopes and Nuclear Properties:
 (Nuclear quadrupole moments (NQMom) in fm**2, nuclear magnetic moments (NMagM)
  in nuclear magnetons)

  Atom         1           2           3           4           5           6           7           8           9          10
 IAtWgt=          12          12          12          12          12          12          19          19          19          19
 AtmWgt=  12.0000000  12.0000000  12.0000000  12.0000000  12.0000000  12.0000000  18.9984032  18.9984032  18.9984032  18.9984032
 NucSpn=           0           0           0           0           0           0           1           1           1           1
 AtZEff=  -0.0000000  -0.0000000  -0.0000000  -0.0000000  -0.0000000  -0.0000000  -0.0000000  -0.0000000  -0.0000000  -0.0000000
 NQMom=    0.0000000   0.0000000   0.0000000   0.0000000   0.0000000   0.0000000   0.0000000   0.0000000   0.0000000   0.0000000
 NMagM=    0.0000000   0.0000000   0.0000000   0.0000000   0.0000000   0.0000000   2.6288670   2.6288670   2.6288670   2.6288670
 AtZNuc=   6.0000000   6.0000000   6.0000000   6.0000000   6.0000000   6.0000000   9.0000000   9.0000000   9.0000000   9.0000000

  Atom        11          12
 IAtWgt=          19          19
 AtmWgt=  18.9984032  18.9984032
 NucSpn=           1           1
 AtZEff=  -0.0000000  -0.0000000
 NQMom=    0.0000000   0.0000000
 NMagM=    2.6288670   2.6288670
 AtZNuc=   9.0000000   9.0000000
 Leave Link  101 at Tue Jan 21 13:18:31 2025, MaxMem=   104857600 cpu:               0.0 elap:               0.0
 (Enter /sw/cluster/pub/apps//g16/l202.exe)
                          Input orientation:                          
 ---------------------------------------------------------------------
 Center     Atomic      Atomic             Coordinates (Angstroms)
 Number     Number       Type             X           Y           Z
 ---------------------------------------------------------------------
      1          6           0        1.231668    0.711104    0.000000
      2          6           0        1.231668   -0.711104    0.000000
      3          6           0        0.000000   -1.422208    0.000000
      4          6           0       -1.231668   -0.711104    0.000000
      5          6           0       -1.231668    0.711104    0.000000
      6          6           0        0.000000    1.422208    0.000000
      7          9           0        2.407080    1.389728    0.000000
      8          9           0        2.407080   -1.389728    0.000000
      9          9           0        0.000000   -2.779456    0.000000
     10          9           0       -2.407080   -1.389728    0.000000
     11          9           0       -2.407080    1.389728    0.000000
     12          9           0        0.000000    2.779456    0.000000
 ---------------------------------------------------------------------
                    Distance matrix (angstroms):
                    1          2          3          4          5
     1  C    0.000000
     2  C    1.422208   0.000000
     3  C    2.463336   1.422208   0.000000
     4  C    2.844416   2.463336   1.422208   0.000000
     5  C    2.463336   2.844416   2.463336   1.422208   0.000000
     6  C    1.422208   2.463336   2.844416   2.463336   1.422208
     7  F    1.357248   2.407299   3.701489   4.201664   3.701489
     8  F    2.407299   1.357248   2.407299   3.701489   4.201664
     9  F    3.701489   2.407299   1.357249   2.407299   3.701489
    10  F    4.201664   3.701489   2.407299   1.357248   2.407299
    11  F    3.701489   4.201664   3.701489   2.407299   1.357248
    12  F    2.407299   3.701489   4.201664   3.701489   2.407299
                    6          7          8          9         10
     6  C    0.000000
     7  F    2.407299   0.000000
     8  F    3.701489   2.779456   0.000000
     9  F    4.201664   4.814160   2.779456   0.000000
    10  F    3.701489   5.558913   4.814160   2.779456   0.000000
    11  F    2.407299   4.814160   5.558913   4.814160   2.779456
    12  F    1.357249   2.779456   4.814160   5.558913   4.814160
                   11         12
    11  F    0.000000
    12  F    2.779456   0.000000
 Symmetry turned off by external request.
 Stoichiometry    C6F6
 Framework group  D6H[3C2'(FC.CF)]
 Deg. of freedom     2
 Full point group                 D6H     NOp  24
 Rotational constants (GHZ):           0.9849026           0.9849026           0.4924513
 Leave Link  202 at Tue Jan 21 13:18:31 2025, MaxMem=   104857600 cpu:               0.0 elap:               0.0
 (Enter /sw/cluster/pub/apps//g16/l301.exe)
 Standard basis: 6-311++G(d,p) (5D, 7F)
 Ernie: Thresh=  0.10000D-02 Tol=  0.10000D-05 Strict=F.
   264 basis functions,   432 primitive gaussians,   276 cartesian basis functions
    45 alpha electrons       45 beta electrons
       nuclear repulsion energy       718.1613876486 Hartrees.
 IExCor= 1009 DFT=T Ex+Corr=PBE1PBE ExCW=0 ScaHFX=  0.250000
 ScaDFX=  0.750000  0.750000  1.000000  1.000000 ScalE2=  1.000000  1.000000
 IRadAn=      5 IRanWt=     -1 IRanGd=            0 ICorTp=0 IEmpDi=  4
 NAtoms=   12 NActive=   12 NUniq=   12 SFac= 1.00D+00 NAtFMM=   60 NAOKFM=F Big=F
 Integral buffers will be    131072 words long.
 Raffenetti 2 integral format.
 Two-electron integral symmetry is turned off.
 Leave Link  301 at Tue Jan 21 13:18:31 2025, MaxMem=   104857600 cpu:               0.0 elap:               0.0
 (Enter /sw/cluster/pub/apps//g16/l302.exe)
 NPDir=0 NMtPBC=     1 NCelOv=     1 NCel=       1 NClECP=     1 NCelD=      1
         NCelK=      1 NCelE2=     1 NClLst=     1 CellRange=     0.0.
 One-electron integrals computed using PRISM.
 NBasis=   264 RedAO= T EigKep=  1.76D-06  NBF=   264
 NBsUse=   264 1.00D-06 EigRej= -1.00D+00 NBFU=   264
 Precomputing XC quadrature grid using
 IXCGrd= 4 IRadAn=           5 IRanWt=          -1 IRanGd=           0 AccXCQ= 0.00D+00.
 Generated NRdTot=       0 NPtTot=           0 NUsed=           0 NTot=          32
 NSgBfM=   275   275   275   275   275 MxSgAt=    12 MxSgA2=    12.
 Leave Link  302 at Tue Jan 21 13:18:31 2025, MaxMem=   104857600 cpu:               0.2 elap:               0.1
 (Enter /sw/cluster/pub/apps//g16/l303.exe)
 DipDrv:  MaxL=1.
 Leave Link  303 at Tue Jan 21 13:18:31 2025, MaxMem=   104857600 cpu:               0.0 elap:               0.0
 (Enter /sw/cluster/pub/apps//g16/l401.exe)
 ExpMin= 4.38D-02 ExpMax= 1.14D+04 ExpMxC= 1.72D+03 IAcc=3 IRadAn=         5 AccDes= 0.00D+00
 Harris functional with IExCor= 1009 and IRadAn=       5 diagonalized for initial guess.
 HarFok:  IExCor= 1009 AccDes= 0.00D+00 IRadAn=         5 IDoV= 1 UseB2=F ITyADJ=14
 ICtDFT=  3500011 ScaDFX=  1.000000  1.000000  1.000000  1.000000
 FoFCou: FMM=F IPFlag=           0 FMFlag=      100000 FMFlg1=           0
         NFxFlg=           0 DoJE=T BraDBF=F KetDBF=T FulRan=T
         wScrn=  0.000000 ICntrl=       500 IOpCl=  0 I1Cent=   200000004 NGrid=           0
         NMat0=    1 NMatS0=      1 NMatT0=    0 NMatD0=    1 NMtDS0=    0 NMtDT0=    0
 Symmetry not used in FoFCou.
 Harris En= -827.025815697205    
 JPrj=0 DoOrth=F DoCkMO=F.
 Leave Link  401 at Tue Jan 21 13:18:33 2025, MaxMem=   104857600 cpu:               1.4 elap:               1.4
 (Enter /sw/cluster/pub/apps//g16/l502.exe)
 Two-electron integral symmetry not used.
 Closed shell SCF:
 Using DIIS extrapolation, IDIIS=  1040.
 NGot=   104857600 LenX=   104701692 LenY=   104625075
 Requested convergence on RMS density matrix=1.00D-08 within 128 cycles.
 Requested convergence on MAX density matrix=1.00D-06.
 Requested convergence on             energy=1.00D-06.
 No special actions if energy rises.
 Fock matrices will be formed incrementally for  20 cycles.

 Cycle   1  Pass 1  IDiag  1:
 FoFJK:  IHMeth= 1 ICntrl=       0 DoSepK=F KAlg= 0 I1Cent=           0 FoldK=F
 IRaf= 900000000 NMat=       1 IRICut=       1 DoRegI=T DoRafI=F ISym2E= 0 IDoP0=0 IntGTp=1.
 FoFCou: FMM=F IPFlag=           0 FMFlag=      100000 FMFlg1=           0
         NFxFlg=           0 DoJE=F BraDBF=F KetDBF=F FulRan=T
         wScrn=  0.000000 ICntrl=         0 IOpCl=  0 I1Cent=           0 NGrid=           0
         NMat0=    1 NMatS0=      1 NMatT0=    0 NMatD0=    1 NMtDS0=    0 NMtDT0=    0
 Symmetry not used in FoFCou.
 E= -826.988483158948    
 DIIS: error= 1.86D-02 at cycle   1 NSaved=   1.
 NSaved= 1 IEnMin= 1 EnMin= -826.988483158948     IErMin= 1 ErrMin= 1.86D-02
 ErrMax= 1.86D-02  0.00D+00 EMaxC= 1.00D-01 BMatC= 9.29D-02 BMatP= 9.29D-02
 IDIUse=3 WtCom= 8.14D-01 WtEn= 1.86D-01
 Coeff-Com:  0.100D+01
 Coeff-En:   0.100D+01
 Coeff:      0.100D+01
 Gap=     0.241 Goal=   None    Shift=    0.000
 GapD=    0.241 DampG=1.000 DampE=0.500 DampFc=0.5000 IDamp=-1.
 Damping current iteration by 5.00D-01
 RMSDP=2.32D-02 MaxDP=1.01D+00              OVMax= 3.52D-02

 Cycle   2  Pass 1  IDiag  1:
 RMSU=  6.84D-03    CP:  1.18D+00
 E= -827.009414964998     Delta-E=       -0.020931806049 Rises=F Damp=T
 DIIS: error= 6.18D-03 at cycle   2 NSaved=   2.
 NSaved= 2 IEnMin= 2 EnMin= -827.009414964998     IErMin= 2 ErrMin= 6.18D-03
 ErrMax= 6.18D-03  0.00D+00 EMaxC= 1.00D-01 BMatC= 1.19D-02 BMatP= 9.29D-02
 IDIUse=3 WtCom= 9.38D-01 WtEn= 6.18D-02
 Coeff-Com: -0.227D+00 0.123D+01
 Coeff-En:   0.000D+00 0.100D+01
 Coeff:     -0.213D+00 0.121D+01
 Gap=     0.238 Goal=   None    Shift=    0.000
 RMSDP=3.25D-03 MaxDP=1.34D-01 DE=-2.09D-02 OVMax= 3.15D-02

 Cycle   3  Pass 1  IDiag  1:
 RMSU=  1.39D-03    CP:  1.23D+00  1.24D+00
 E= -827.024100260120     Delta-E=       -0.014685295122 Rises=F Damp=F
 DIIS: error= 8.19D-03 at cycle   3 NSaved=   3.
 NSaved= 3 IEnMin= 3 EnMin= -827.024100260120     IErMin= 2 ErrMin= 6.18D-03
 ErrMax= 8.19D-03  0.00D+00 EMaxC= 1.00D-01 BMatC= 1.08D-02 BMatP= 1.19D-02
 IDIUse=3 WtCom= 9.18D-01 WtEn= 8.19D-02
 Coeff-Com: -0.252D+00 0.711D+00 0.541D+00
 Coeff-En:   0.000D+00 0.000D+00 0.100D+01
 Coeff:     -0.231D+00 0.652D+00 0.579D+00
 Gap=     0.242 Goal=   None    Shift=    0.000
 RMSDP=1.27D-03 MaxDP=4.82D-02 DE=-1.47D-02 OVMax= 1.68D-02

 Cycle   4  Pass 1  IDiag  1:
 RMSU=  2.47D-04    CP:  1.24D+00  1.36D+00  7.55D-01
 E= -827.029938963170     Delta-E=       -0.005838703051 Rises=F Damp=F
 DIIS: error= 3.10D-03 at cycle   4 NSaved=   4.
 NSaved= 4 IEnMin= 4 EnMin= -827.029938963170     IErMin= 4 ErrMin= 3.10D-03
 ErrMax= 3.10D-03  0.00D+00 EMaxC= 1.00D-01 BMatC= 1.01D-03 BMatP= 1.08D-02
 IDIUse=3 WtCom= 9.69D-01 WtEn= 3.10D-02
 Coeff-Com: -0.633D-01 0.142D+00 0.289D+00 0.632D+00
 Coeff-En:   0.000D+00 0.000D+00 0.104D+00 0.896D+00
 Coeff:     -0.613D-01 0.138D+00 0.284D+00 0.640D+00
 Gap=     0.240 Goal=   None    Shift=    0.000
 RMSDP=6.81D-04 MaxDP=2.88D-02 DE=-5.84D-03 OVMax= 5.56D-03

 Cycle   5  Pass 1  IDiag  1:
 RMSU=  6.76D-05    CP:  1.23D+00  1.30D+00  8.21D-01  7.63D-01
 E= -827.030712200539     Delta-E=       -0.000773237369 Rises=F Damp=F
 DIIS: error= 3.34D-04 at cycle   5 NSaved=   5.
 NSaved= 5 IEnMin= 5 EnMin= -827.030712200539     IErMin= 5 ErrMin= 3.34D-04
 ErrMax= 3.34D-04  0.00D+00 EMaxC= 1.00D-01 BMatC= 1.14D-05 BMatP= 1.01D-03
 IDIUse=3 WtCom= 9.97D-01 WtEn= 3.34D-03
 Coeff-Com: -0.131D-01 0.247D-01 0.636D-01 0.208D+00 0.717D+00
 Coeff-En:   0.000D+00 0.000D+00 0.000D+00 0.000D+00 0.100D+01
 Coeff:     -0.131D-01 0.246D-01 0.634D-01 0.207D+00 0.718D+00
 Gap=     0.240 Goal=   None    Shift=    0.000
 RMSDP=1.66D-04 MaxDP=6.84D-03 DE=-7.73D-04 OVMax= 5.54D-04

 Cycle   6  Pass 1  IDiag  1:
 RMSU=  2.11D-05    CP:  1.23D+00  1.32D+00  8.10D-01  7.81D-01  9.35D-01
 E= -827.030721087316     Delta-E=       -0.000008886776 Rises=F Damp=F
 DIIS: error= 1.35D-05 at cycle   6 NSaved=   6.
 NSaved= 6 IEnMin= 6 EnMin= -827.030721087316     IErMin= 6 ErrMin= 1.35D-05
 ErrMax= 1.35D-05  0.00D+00 EMaxC= 1.00D-01 BMatC= 3.70D-08 BMatP= 1.14D-05
 IDIUse=1 WtCom= 1.00D+00 WtEn= 0.00D+00
 Coeff-Com: -0.713D-03 0.989D-03 0.348D-02 0.174D-01 0.807D-01 0.898D+00
 Coeff:     -0.713D-03 0.989D-03 0.348D-02 0.174D-01 0.807D-01 0.898D+00
 Gap=     0.240 Goal=   None    Shift=    0.000
 RMSDP=1.63D-05 MaxDP=7.25D-04 DE=-8.89D-06 OVMax= 4.15D-05

 Cycle   7  Pass 1  IDiag  1:
 RMSU=  1.85D-06    CP:  1.23D+00  1.32D+00  8.10D-01  7.85D-01  9.63D-01
                    CP:  1.04D+00
 E= -827.030721116237     Delta-E=       -0.000000028921 Rises=F Damp=F
 DIIS: error= 4.66D-06 at cycle   7 NSaved=   7.
 NSaved= 7 IEnMin= 7 EnMin= -827.030721116237     IErMin= 7 ErrMin= 4.66D-06
 ErrMax= 4.66D-06  0.00D+00 EMaxC= 1.00D-01 BMatC= 3.48D-09 BMatP= 3.70D-08
 IDIUse=1 WtCom= 1.00D+00 WtEn= 0.00D+00
 Coeff-Com:  0.253D-03-0.542D-03-0.146D-02-0.373D-02-0.160D-01 0.191D+00
 Coeff-Com:  0.831D+00
 Coeff:      0.253D-03-0.542D-03-0.146D-02-0.373D-02-0.160D-01 0.191D+00
 Coeff:      0.831D+00
 Gap=     0.240 Goal=   None    Shift=    0.000
 RMSDP=2.40D-06 MaxDP=1.01D-04 DE=-2.89D-08 OVMax= 1.06D-05

 Cycle   8  Pass 1  IDiag  1:
 RMSU=  1.56D-07    CP:  1.23D+00  1.32D+00  8.10D-01  7.85D-01  9.62D-01
                    CP:  1.05D+00  9.09D-01
 E= -827.030721119271     Delta-E=       -0.000000003034 Rises=F Damp=F
 DIIS: error= 3.58D-07 at cycle   8 NSaved=   8.
 NSaved= 8 IEnMin= 8 EnMin= -827.030721119271     IErMin= 8 ErrMin= 3.58D-07
 ErrMax= 3.58D-07  0.00D+00 EMaxC= 1.00D-01 BMatC= 4.92D-12 BMatP= 3.48D-09
 IDIUse=1 WtCom= 1.00D+00 WtEn= 0.00D+00
 Coeff-Com:  0.112D-04-0.185D-04-0.149D-04-0.861D-04-0.454D-04-0.153D-01
 Coeff-Com: -0.367D-01 0.105D+01
 Coeff:      0.112D-04-0.185D-04-0.149D-04-0.861D-04-0.454D-04-0.153D-01
 Coeff:     -0.367D-01 0.105D+01
 Gap=     0.240 Goal=   None    Shift=    0.000
 RMSDP=2.67D-07 MaxDP=1.14D-05 DE=-3.03D-09 OVMax= 1.56D-06

 Cycle   9  Pass 1  IDiag  1:
 RMSU=  2.05D-08    CP:  1.23D+00  1.32D+00  8.10D-01  7.85D-01  9.62D-01
                    CP:  1.05D+00  9.14D-01  1.06D+00
 E= -827.030721119278     Delta-E=       -0.000000000007 Rises=F Damp=F
 DIIS: error= 4.20D-08 at cycle   9 NSaved=   9.
 NSaved= 9 IEnMin= 9 EnMin= -827.030721119278     IErMin= 9 ErrMin= 4.20D-08
 ErrMax= 4.20D-08  0.00D+00 EMaxC= 1.00D-01 BMatC= 2.40D-13 BMatP= 4.92D-12
 IDIUse=1 WtCom= 1.00D+00 WtEn= 0.00D+00
 Coeff-Com: -0.183D-05 0.402D-05 0.558D-05 0.231D-04 0.112D-03-0.159D-02
 Coeff-Com: -0.641D-02 0.614D-02 0.100D+01
 Coeff:     -0.183D-05 0.402D-05 0.558D-05 0.231D-04 0.112D-03-0.159D-02
 Coeff:     -0.641D-02 0.614D-02 0.100D+01
 Gap=     0.240 Goal=   None    Shift=    0.000
 RMSDP=9.46D-09 MaxDP=4.88D-07 DE=-6.59D-12 OVMax= 1.31D-07

 SCF Done:  E(RPBE1PBE) =  -827.030721119     A.U. after    9 cycles
            NFock=  9  Conv=0.95D-08     -V/T= 2.0037
 KE= 8.239719173180D+02 PE=-3.394257456903D+03 EE= 1.025093430817D+03
 Leave Link  502 at Tue Jan 21 13:19:08 2025, MaxMem=   104857600 cpu:              35.2 elap:              35.4
 (Enter /sw/cluster/pub/apps//g16/l601.exe)
 Copying SCF densities to generalized density rwf, IOpCl= 0 IROHF=0.

 **********************************************************************

            Population analysis using the SCF density.

 **********************************************************************

 Alpha  occ. eigenvalues --  -24.83546 -24.83545 -24.83545 -24.83544 -24.83544
 Alpha  occ. eigenvalues --  -24.83544 -10.38808 -10.38786 -10.38786 -10.38737
 Alpha  occ. eigenvalues --  -10.38737 -10.38713  -1.32117  -1.31515  -1.31515
 Alpha  occ. eigenvalues --   -1.30374  -1.30374  -1.29816  -0.95263  -0.83761
 Alpha  occ. eigenvalues --   -0.83761  -0.72012  -0.72012  -0.64586  -0.64398
 Alpha  occ. eigenvalues --   -0.63378  -0.59489  -0.59488  -0.57801  -0.57801
 Alpha  occ. eigenvalues --   -0.56974  -0.54029  -0.54029  -0.51431  -0.51431
 Alpha  occ. eigenvalues --   -0.50632  -0.49284  -0.49284  -0.48260  -0.45864
 Alpha  occ. eigenvalues --   -0.45864  -0.42860  -0.39689  -0.30543  -0.30543
 Alpha virt. eigenvalues --   -0.06505  -0.05940  -0.05940   0.01255   0.01255
 Alpha virt. eigenvalues --    0.03615   0.04755   0.06261   0.06261   0.08317
 Alpha virt. eigenvalues --    0.08731   0.08761   0.08761   0.09893   0.09893
 Alpha virt. eigenvalues --    0.10682   0.12304   0.12917   0.12917   0.13947
 Alpha virt. eigenvalues --    0.13947   0.14966   0.15817   0.15817   0.17245
 Alpha virt. eigenvalues --    0.17295   0.17296   0.20424   0.20424   0.22167
 Alpha virt. eigenvalues --    0.22167   0.23420   0.25630   0.25861   0.28555
 Alpha virt. eigenvalues --    0.28555   0.29109   0.31798   0.31798   0.31928
 Alpha virt. eigenvalues --    0.32662   0.32662   0.33615   0.33615   0.35625
 Alpha virt. eigenvalues --    0.35625   0.36436   0.36975   0.38675   0.38675
 Alpha virt. eigenvalues --    0.40826   0.40826   0.40988   0.40988   0.43429
 Alpha virt. eigenvalues --    0.46870   0.50742   0.50742   0.50849   0.50849
 Alpha virt. eigenvalues --    0.51147   0.53532   0.54201   0.54201   0.54222
 Alpha virt. eigenvalues --    0.57059   0.57986   0.59943   0.60238   0.60238
 Alpha virt. eigenvalues --    0.70343   0.70343   0.72559   0.72559   0.76438
 Alpha virt. eigenvalues --    0.80169   0.85020   0.85020   0.89596   0.90331
 Alpha virt. eigenvalues --    0.90331   0.94989   0.94989   0.98849   1.00886
 Alpha virt. eigenvalues --    1.04612   1.04612   1.10282   1.10282   1.12712
 Alpha virt. eigenvalues --    1.12712   1.17050   1.25254   1.25670   1.35197
 Alpha virt. eigenvalues --    1.37190   1.39587   1.39587   1.41210   1.41211
 Alpha virt. eigenvalues --    1.42050   1.42050   1.43452   1.43452   1.43516
 Alpha virt. eigenvalues --    1.44202   1.49618   1.49706   1.52068   1.52068
 Alpha virt. eigenvalues --    1.52348   1.54221   1.54222   1.56234   1.56235
 Alpha virt. eigenvalues --    1.61455   1.69078   1.69078   1.70333   1.70333
 Alpha virt. eigenvalues --    1.77071   1.77071   1.79192   1.79192   1.88351
 Alpha virt. eigenvalues --    1.89496   1.98339   1.98339   2.04427   2.04427
 Alpha virt. eigenvalues --    2.10497   2.10497   2.14040   2.14040   2.17403
 Alpha virt. eigenvalues --    2.18634   2.32266   2.32266   2.32966   2.37259
 Alpha virt. eigenvalues --    2.52880   2.65718   2.65718   2.79080   2.79080
 Alpha virt. eigenvalues --    2.88367   2.99962   3.02260   3.03881   3.03881
 Alpha virt. eigenvalues --    3.06731   3.12902   3.12902   3.36259   3.36259
 Alpha virt. eigenvalues --    3.60169   3.69858   3.69858   3.74291   3.75221
 Alpha virt. eigenvalues --    3.75221   3.75384   3.75909   3.75909   3.76840
 Alpha virt. eigenvalues --    3.80513   3.80795   3.80795   3.87618   3.89854
 Alpha virt. eigenvalues --    3.92195   3.92195   3.92628   3.92628   3.96437
 Alpha virt. eigenvalues --    3.96437   3.99992   4.01151   4.01151   4.10925
 Alpha virt. eigenvalues --    4.10925   4.16718   4.59983   4.78893   4.78893
 Alpha virt. eigenvalues --    4.82189   4.88841   4.88841   4.95415   6.28146
 Alpha virt. eigenvalues --    6.31745   6.31745   6.34645   6.34645   6.38264
 Alpha virt. eigenvalues --    6.39416   6.43647   6.43647   6.46724   6.46724
 Alpha virt. eigenvalues --    6.46993   6.55412   6.71374   6.71374   6.80005
 Alpha virt. eigenvalues --    6.80005   6.87241  23.37667  23.78461  23.78461
 Alpha virt. eigenvalues --   23.92611  23.92611  24.02477  66.84928  66.88573
 Alpha virt. eigenvalues --   66.88573  66.91756  66.91756  66.99396
          Condensed to atoms (all electrons):
               1          2          3          4          5          6
     1  C   14.987358   0.655878  -3.660431  -3.215436  -3.660602   0.655927
     2  C    0.655878  14.987357   0.655928  -3.660602  -3.215435  -3.660431
     3  C   -3.660431   0.655928  14.986968   0.655927  -3.660431  -3.215247
     4  C   -3.215436  -3.660602   0.655927  14.987358   0.655878  -3.660431
     5  C   -3.660602  -3.215435  -3.660431   0.655878  14.987358   0.655927
     6  C    0.655927  -3.660431  -3.215247  -3.660431   0.655927  14.986969
     7  F    0.569600  -0.207810  -0.056223   0.020067  -0.056225  -0.207805
     8  F   -0.207810   0.569600  -0.207805  -0.056225   0.020067  -0.056223
     9  F   -0.056222  -0.207822   0.569632  -0.207822  -0.056222   0.020066
    10  F    0.020067  -0.056225  -0.207805   0.569600  -0.207810  -0.056223
    11  F   -0.056225   0.020067  -0.056223  -0.207810   0.569600  -0.207805
    12  F   -0.207822  -0.056222   0.020066  -0.056222  -0.207822   0.569632
               7          8          9         10         11         12
     1  C    0.569600  -0.207810  -0.056222   0.020067  -0.056225  -0.207822
     2  C   -0.207810   0.569600  -0.207822  -0.056225   0.020067  -0.056222
     3  C   -0.056223  -0.207805   0.569632  -0.207805  -0.056223   0.020066
     4  C    0.020067  -0.056225  -0.207822   0.569600  -0.207810  -0.056222
     5  C   -0.056225   0.020067  -0.056222  -0.207810   0.569600  -0.207822
     6  C   -0.207805  -0.056223   0.020066  -0.056223  -0.207805   0.569632
     7  F    9.104907   0.004152   0.000493  -0.000105   0.000493   0.004152
     8  F    0.004152   9.104907   0.004152   0.000493  -0.000105   0.000493
     9  F    0.000493   0.004152   9.104892   0.004152   0.000493  -0.000105
    10  F   -0.000105   0.000493   0.004152   9.104907   0.004152   0.000493
    11  F    0.000493  -0.000105   0.000493   0.004152   9.104907   0.004152
    12  F    0.004152   0.000493  -0.000105   0.000493   0.004152   9.104892
 Mulliken charges:
               1
     1  C    0.175718
     2  C    0.175718
     3  C    0.175642
     4  C    0.175718
     5  C    0.175718
     6  C    0.175642
     7  F   -0.175695
     8  F   -0.175695
     9  F   -0.175686
    10  F   -0.175695
    11  F   -0.175695
    12  F   -0.175686
 Sum of Mulliken charges =  -0.00000
 Mulliken charges with hydrogens summed into heavy atoms:
               1
     1  C    0.175718
     2  C    0.175718
     3  C    0.175642
     4  C    0.175718
     5  C    0.175718
     6  C    0.175642
     7  F   -0.175695
     8  F   -0.175695
     9  F   -0.175686
    10  F   -0.175695
    11  F   -0.175695
    12  F   -0.175686
 Electronic spatial extent (au):  <R**2>=           1899.8369
 Charge=             -0.0000 electrons
 Dipole moment (field-independent basis, Debye):
    X=             -0.0000    Y=              0.0000    Z=             -0.0000  Tot=              0.0000
 Quadrupole moment (field-independent basis, Debye-Ang):
   XX=            -70.2898   YY=            -70.2898   ZZ=            -61.2597
   XY=              0.0000   XZ=              0.0000   YZ=              0.0000
 Traceless Quadrupole moment (field-independent basis, Debye-Ang):
   XX=             -3.0101   YY=             -3.0100   ZZ=              6.0201
   XY=              0.0000   XZ=              0.0000   YZ=              0.0000
 Octapole moment (field-independent basis, Debye-Ang**2):
  XXX=              0.0000  YYY=              0.0000  ZZZ=             -0.0000  XYY=             -0.0000
  XXY=              0.0000  XXZ=             -0.0000  XZZ=              0.0000  YZZ=              0.0000
  YYZ=              0.0000  XYZ=             -0.0000
 Hexadecapole moment (field-independent basis, Debye-Ang**3):
 XXXX=           -996.2622 YYYY=           -996.2614 ZZZZ=            -53.7533 XXXY=              0.0000
 XXXZ=              0.0000 YYYX=              0.0000 YYYZ=              0.0000 ZZZX=              0.0000
 ZZZY=              0.0000 XXYY=           -332.0873 XXZZ=           -161.0847 YYZZ=           -161.0847
 XXYZ=             -0.0000 YYXZ=              0.0000 ZZXY=              0.0000
 N-N= 7.181613876486D+02 E-N=-3.394257454137D+03  KE= 8.239719173180D+02
 No NMR shielding tensors so no spin-rotation constants.
 Leave Link  601 at Tue Jan 21 13:19:08 2025, MaxMem=   104857600 cpu:               0.0 elap:               0.1
 (Enter /sw/cluster/pub/apps//g16/l9999.exe)
 1\1\GINC-N02\SP\RPBE1PBE\6-311++G(d,p)\C6F6\UNKNOWN\21-Jan-2025\0\\#p 
 PBE1PBE/6-311++G(d,p) density=current nosymm\\HFB SP\\0,1\C,0,1.231668
 191,0.711104006,0.\C,0,1.231668191,-0.711104006,0.\C,0,0.,-1.422207916
 ,0.\C,0,-1.231668191,-0.711104006,0.\C,0,-1.231668191,0.711104006,0.\C
 ,0,0.,1.422207916,0.\F,0,2.407079872,1.389728212,0.\F,0,2.407079872,-1
 .389728212,0.\F,0,0.,-2.779456425,0.\F,0,-2.407079872,-1.389728212,0.\
 F,0,-2.407079872,1.389728212,0.\F,0,0.,2.779456425,0.\\Version=ES64L-G
 16RevA.03\HF=-827.0307211\RMSD=9.458e-09\Dipole=0.,0.,0.\Quadrupole=-2
 .2379001,-2.2378644,4.4757645,0.,0.,0.\PG=D06H [3C2'(F1C1.C1F1)]\\@


 ALMOST ANYTHING IS EASIER TO GET INTO THAN OUT OF.

                         -- AGNES ALLEN'S LAW FROM
                PAUL DICKSON'S "THE OFFICIAL RULES"
 Job cpu time:       0 days  0 hours  0 minutes 36.9 seconds.
 Elapsed time:       0 days  0 hours  0 minutes 37.1 seconds.
 File lengths (MBytes):  RWF=     41 Int=      0 D2E=      0 Chk=      5 Scr=      1
 Normal termination of Gaussian 16 at Tue Jan 21 13:19:08 2025.
