HFB SP                                                                  
SP        RPBE1PBE                                                    6-311++G(d,p)       
Number of atoms                            I               12
Info1-9                                    I   N=           9
          19          19           0           0           0         110
           1          18        -302
Full Title                                 C   N=           1
HFB SP      
Route                                      C   N=           4
#p PBE1PBE/6-311++G(d,p) density=current nosymm 
Charge                                     I                0
Multiplicity                               I                1
Number of electrons                        I               90
Number of alpha electrons                  I               45
Number of beta electrons                   I               45
Number of basis functions                  I              264
Number of independent functions            I              264
Number of point charges in /Mol/           I                0
Number of translation vectors              I                0
Atomic numbers                             I   N=          12
           6           6           6           6           6           6
           9           9           9           9           9           9
Nuclear charges                            R   N=          12
  6.00000000E+00  6.00000000E+00  6.00000000E+00  6.00000000E+00  6.00000000E+00
  6.00000000E+00  9.00000000E+00  9.00000000E+00  9.00000000E+00  9.00000000E+00
  9.00000000E+00  9.00000000E+00
Current cartesian coordinates              R   N=          36
  2.32751556E+00  1.34379182E+00  0.00000000E+00  2.32751556E+00 -1.34379182E+00
  0.00000000E+00  0.00000000E+00 -2.68758345E+00  0.00000000E+00 -2.32751556E+00
 -1.34379182E+00  0.00000000E+00 -2.32751556E+00  1.34379182E+00  0.00000000E+00
  0.00000000E+00  2.68758345E+00  0.00000000E+00  4.54872172E+00  2.62620571E+00
  0.00000000E+00  4.54872172E+00 -2.62620571E+00  0.00000000E+00  0.00000000E+00
 -5.25241142E+00  0.00000000E+00 -4.54872172E+00 -2.62620571E+00  0.00000000E+00
 -4.54872172E+00  2.62620571E+00  0.00000000E+00  0.00000000E+00  5.25241142E+00
  0.00000000E+00
Number of symbols in /Mol/                 I                0
Force Field                                I                0
Atom Types                                 C   N=          12
                                                            
                                                            
                        
Int Atom Types                             I   N=          12
           0           0           0           0           0           0
           0           0           0           0           0           0
MM charges                                 R   N=          12
  0.00000000E+00  0.00000000E+00  0.00000000E+00  0.00000000E+00  0.00000000E+00
  0.00000000E+00  0.00000000E+00  0.00000000E+00  0.00000000E+00  0.00000000E+00
  0.00000000E+00  0.00000000E+00
Integer atomic weights                     I   N=          12
          12          12          12          12          12          12
          19          19          19          19          19          19
Real atomic weights                        R   N=          12
  1.20000000E+01  1.20000000E+01  1.20000000E+01  1.20000000E+01  1.20000000E+01
  1.20000000E+01  1.89984032E+01  1.89984032E+01  1.89984032E+01  1.89984032E+01
  1.89984032E+01  1.89984032E+01
Atom fragment info                         I   N=          12
           0           0           0           0           0           0
           0           0           0           0           0           0
Atom residue num                           I   N=          12
           0           0           0           0           0           0
           0           0           0           0           0           0
Nuclear spins                              I   N=          12
           0           0           0           0           0           0
           1           1           1           1           1           1
Nuclear ZEff                               R   N=          12
 -3.60000000E+00 -3.60000000E+00 -3.60000000E+00 -3.60000000E+00 -3.60000000E+00
 -3.60000000E+00 -6.75000000E+00 -6.75000000E+00 -6.75000000E+00 -6.75000000E+00
 -6.75000000E+00 -6.75000000E+00
Nuclear ZNuc                               R   N=          12
  6.00000000E+00  6.00000000E+00  6.00000000E+00  6.00000000E+00  6.00000000E+00
  6.00000000E+00  9.00000000E+00  9.00000000E+00  9.00000000E+00  9.00000000E+00
  9.00000000E+00  9.00000000E+00
Nuclear QMom                               R   N=          12
  0.00000000E+00  0.00000000E+00  0.00000000E+00  0.00000000E+00  0.00000000E+00
  0.00000000E+00  0.00000000E+00  0.00000000E+00  0.00000000E+00  0.00000000E+00
  0.00000000E+00  0.00000000E+00
Nuclear GFac                               R   N=          12
  0.00000000E+00  0.00000000E+00  0.00000000E+00  0.00000000E+00  0.00000000E+00
  0.00000000E+00  2.62886700E+00  2.62886700E+00  2.62886700E+00  2.62886700E+00
  2.62886700E+00  2.62886700E+00
MicOpt                                     I   N=          12
          -1          -1          -1          -1          -1          -1
          -1          -1          -1          -1          -1          -1
Number of residues                         I                0
Number of secondary structures             I                0
SymInf integers                            I   N=          26
           4           8           1           1           1          -1
          -1           1          -1           1          -1           1
          -1          -1          -1           1           1           1
          -1           1           1           1          -1          -1
          -1          -1
RotTr to input orientation                 R   N=          12
 -5.00000000E-01  8.66025404E-01 -1.22464680E-16  8.66025404E-01  5.00000000E-01
  0.00000000E+00  6.12323400E-17 -1.06057524E-16 -1.00000000E+00  2.96059473E-17
 -9.86864911E-18  0.00000000E+00
Number of contracted shells                I               72
Number of primitive shells                 I              156
Pure/Cartesian d shells                    I                0
Pure/Cartesian f shells                    I                0
Highest angular momentum                   I                2
Largest degree of contraction              I                6
Shell types                                I   N=          72
           0          -1          -1          -1          -1          -2
           0          -1          -1          -1          -1          -2
           0          -1          -1          -1          -1          -2
           0          -1          -1          -1          -1          -2
           0          -1          -1          -1          -1          -2
           0          -1          -1          -1          -1          -2
           0          -1          -1          -1          -1          -2
           0          -1          -1          -1          -1          -2
           0          -1          -1          -1          -1          -2
           0          -1          -1          -1          -1          -2
           0          -1          -1          -1          -1          -2
           0          -1          -1          -1          -1          -2
Number of primitives per shell             I   N=          72
           6           3           1           1           1           1
           6           3           1           1           1           1
           6           3           1           1           1           1
           6           3           1           1           1           1
           6           3           1           1           1           1
           6           3           1           1           1           1
           6           3           1           1           1           1
           6           3           1           1           1           1
           6           3           1           1           1           1
           6           3           1           1           1           1
           6           3           1           1           1           1
           6           3           1           1           1           1
Shell to atom map                          I   N=          72
           1           1           1           1           1           1
           2           2           2           2           2           2
           3           3           3           3           3           3
           4           4           4           4           4           4
           5           5           5           5           5           5
           6           6           6           6           6           6
           7           7           7           7           7           7
           8           8           8           8           8           8
           9           9           9           9           9           9
          10          10          10          10          10          10
          11          11          11          11          11          11
          12          12          12          12          12          12
Primitive exponents                        R   N=         156
  4.56324000E+03  6.82024000E+02  1.54973000E+02  4.44553000E+01  1.30290000E+01
  1.82773000E+00  2.09642000E+01  4.80331000E+00  1.45933000E+00  4.83456000E-01
  1.45585000E-01  4.38000000E-02  6.26000000E-01  4.56324000E+03  6.82024000E+02
  1.54973000E+02  4.44553000E+01  1.30290000E+01  1.82773000E+00  2.09642000E+01
  4.80331000E+00  1.45933000E+00  4.83456000E-01  1.45585000E-01  4.38000000E-02
  6.26000000E-01  4.56324000E+03  6.82024000E+02  1.54973000E+02  4.44553000E+01
  1.30290000E+01  1.82773000E+00  2.09642000E+01  4.80331000E+00  1.45933000E+00
  4.83456000E-01  1.45585000E-01  4.38000000E-02  6.26000000E-01  4.56324000E+03
  6.82024000E+02  1.54973000E+02  4.44553000E+01  1.30290000E+01  1.82773000E+00
  2.09642000E+01  4.80331000E+00  1.45933000E+00  4.83456000E-01  1.45585000E-01
  4.38000000E-02  6.26000000E-01  4.56324000E+03  6.82024000E+02  1.54973000E+02
  4.44553000E+01  1.30290000E+01  1.82773000E+00  2.09642000E+01  4.80331000E+00
  1.45933000E+00  4.83456000E-01  1.45585000E-01  4.38000000E-02  6.26000000E-01
  4.56324000E+03  6.82024000E+02  1.54973000E+02  4.44553000E+01  1.30290000E+01
  1.82773000E+00  2.09642000E+01  4.80331000E+00  1.45933000E+00  4.83456000E-01
  1.45585000E-01  4.38000000E-02  6.26000000E-01  1.14271000E+04  1.72235000E+03
  3.95746000E+02  1.15139000E+02  3.36026000E+01  4.91901000E+00  5.54441000E+01
  1.26323000E+01  3.71756000E+00  1.16545000E+00  3.21892000E-01  1.07600000E-01
  1.75000000E+00  1.14271000E+04  1.72235000E+03  3.95746000E+02  1.15139000E+02
  3.36026000E+01  4.91901000E+00  5.54441000E+01  1.26323000E+01  3.71756000E+00
  1.16545000E+00  3.21892000E-01  1.07600000E-01  1.75000000E+00  1.14271000E+04
  1.72235000E+03  3.95746000E+02  1.15139000E+02  3.36026000E+01  4.91901000E+00
  5.54441000E+01  1.26323000E+01  3.71756000E+00  1.16545000E+00  3.21892000E-01
  1.07600000E-01  1.75000000E+00  1.14271000E+04  1.72235000E+03  3.95746000E+02
  1.15139000E+02  3.36026000E+01  4.91901000E+00  5.54441000E+01  1.26323000E+01
  3.71756000E+00  1.16545000E+00  3.21892000E-01  1.07600000E-01  1.75000000E+00
  1.14271000E+04  1.72235000E+03  3.95746000E+02  1.15139000E+02  3.36026000E+01
  4.91901000E+00  5.54441000E+01  1.26323000E+01  3.71756000E+00  1.16545000E+00
  3.21892000E-01  1.07600000E-01  1.75000000E+00  1.14271000E+04  1.72235000E+03
  3.95746000E+02  1.15139000E+02  3.36026000E+01  4.91901000E+00  5.54441000E+01
  1.26323000E+01  3.71756000E+00  1.16545000E+00  3.21892000E-01  1.07600000E-01
  1.75000000E+00
Contraction coefficients                   R   N=         156
  1.96665025E-03  1.52306019E-02  7.61269097E-02  2.60801033E-01  6.16462078E-01
  2.21006028E-01  1.14660081E-01  9.19999648E-01 -3.03068213E-03  1.00000000E+00
  1.00000000E+00  1.00000000E+00  1.00000000E+00  1.96665025E-03  1.52306019E-02
  7.61269097E-02  2.60801033E-01  6.16462078E-01  2.21006028E-01  1.14660081E-01
  9.19999648E-01 -3.03068213E-03  1.00000000E+00  1.00000000E+00  1.00000000E+00
  1.00000000E+00  1.96665025E-03  1.52306019E-02  7.61269097E-02  2.60801033E-01
  6.16462078E-01  2.21006028E-01  1.14660081E-01  9.19999648E-01 -3.03068213E-03
  1.00000000E+00  1.00000000E+00  1.00000000E+00  1.00000000E+00  1.96665025E-03
  1.52306019E-02  7.61269097E-02  2.60801033E-01  6.16462078E-01  2.21006028E-01
  1.14660081E-01  9.19999648E-01 -3.03068213E-03  1.00000000E+00  1.00000000E+00
  1.00000000E+00  1.00000000E+00  1.96665025E-03  1.52306019E-02  7.61269097E-02
  2.60801033E-01  6.16462078E-01  2.21006028E-01  1.14660081E-01  9.19999648E-01
 -3.03068213E-03  1.00000000E+00  1.00000000E+00  1.00000000E+00  1.00000000E+00
  1.96665025E-03  1.52306019E-02  7.61269097E-02  2.60801033E-01  6.16462078E-01
  2.21006028E-01  1.14660081E-01  9.19999648E-01 -3.03068213E-03  1.00000000E+00
  1.00000000E+00  1.00000000E+00  1.00000000E+00  1.80093016E-03  1.37419012E-02
  6.81334059E-02  2.33325020E-01  5.89086051E-01  2.99505026E-01  1.14536016E-01
  9.20512125E-01 -3.37804046E-03  1.00000000E+00  1.00000000E+00  1.00000000E+00
  1.00000000E+00  1.80093016E-03  1.37419012E-02  6.81334059E-02  2.33325020E-01
  5.89086051E-01  2.99505026E-01  1.14536016E-01  9.20512125E-01 -3.37804046E-03
  1.00000000E+00  1.00000000E+00  1.00000000E+00  1.00000000E+00  1.80093016E-03
  1.37419012E-02  6.81334059E-02  2.33325020E-01  5.89086051E-01  2.99505026E-01
  1.14536016E-01  9.20512125E-01 -3.37804046E-03  1.00000000E+00  1.00000000E+00
  1.00000000E+00  1.00000000E+00  1.80093016E-03  1.37419012E-02  6.81334059E-02
  2.33325020E-01  5.89086051E-01  2.99505026E-01  1.14536016E-01  9.20512125E-01
 -3.37804046E-03  1.00000000E+00  1.00000000E+00  1.00000000E+00  1.00000000E+00
  1.80093016E-03  1.37419012E-02  6.81334059E-02  2.33325020E-01  5.89086051E-01
  2.99505026E-01  1.14536016E-01  9.20512125E-01 -3.37804046E-03  1.00000000E+00
  1.00000000E+00  1.00000000E+00  1.00000000E+00  1.80093016E-03  1.37419012E-02
  6.81334059E-02  2.33325020E-01  5.89086051E-01  2.99505026E-01  1.14536016E-01
  9.20512125E-01 -3.37804046E-03  1.00000000E+00  1.00000000E+00  1.00000000E+00
  1.00000000E+00
P(S=P) Contraction coefficients            R   N=         156
  0.00000000E+00  0.00000000E+00  0.00000000E+00  0.00000000E+00  0.00000000E+00
  0.00000000E+00  4.02486927E-02  2.37593957E-01  8.15853851E-01  1.00000000E+00
  1.00000000E+00  1.00000000E+00  0.00000000E+00  0.00000000E+00  0.00000000E+00
  0.00000000E+00  0.00000000E+00  0.00000000E+00  0.00000000E+00  4.02486927E-02
  2.37593957E-01  8.15853851E-01  1.00000000E+00  1.00000000E+00  1.00000000E+00
  0.00000000E+00  0.00000000E+00  0.00000000E+00  0.00000000E+00  0.00000000E+00
  0.00000000E+00  0.00000000E+00  4.02486927E-02  2.37593957E-01  8.15853851E-01
  1.00000000E+00  1.00000000E+00  1.00000000E+00  0.00000000E+00  0.00000000E+00
  0.00000000E+00  0.00000000E+00  0.00000000E+00  0.00000000E+00  0.00000000E+00
  4.02486927E-02  2.37593957E-01  8.15853851E-01  1.00000000E+00  1.00000000E+00
  1.00000000E+00  0.00000000E+00  0.00000000E+00  0.00000000E+00  0.00000000E+00
  0.00000000E+00  0.00000000E+00  0.00000000E+00  4.02486927E-02  2.37593957E-01
  8.15853851E-01  1.00000000E+00  1.00000000E+00  1.00000000E+00  0.00000000E+00
  0.00000000E+00  0.00000000E+00  0.00000000E+00  0.00000000E+00  0.00000000E+00
  0.00000000E+00  4.02486927E-02  2.37593957E-01  8.15853851E-01  1.00000000E+00
  1.00000000E+00  1.00000000E+00  0.00000000E+00  0.00000000E+00  0.00000000E+00
  0.00000000E+00  0.00000000E+00  0.00000000E+00  0.00000000E+00  3.54608874E-02
  2.37450915E-01  8.20457708E-01  1.00000000E+00  1.00000000E+00  1.00000000E+00
  0.00000000E+00  0.00000000E+00  0.00000000E+00  0.00000000E+00  0.00000000E+00
  0.00000000E+00  0.00000000E+00  3.54608874E-02  2.37450915E-01  8.20457708E-01
  1.00000000E+00  1.00000000E+00  1.00000000E+00  0.00000000E+00  0.00000000E+00
  0.00000000E+00  0.00000000E+00  0.00000000E+00  0.00000000E+00  0.00000000E+00
  3.54608874E-02  2.37450915E-01  8.20457708E-01  1.00000000E+00  1.00000000E+00
  1.00000000E+00  0.00000000E+00  0.00000000E+00  0.00000000E+00  0.00000000E+00
  0.00000000E+00  0.00000000E+00  0.00000000E+00  3.54608874E-02  2.37450915E-01
  8.20457708E-01  1.00000000E+00  1.00000000E+00  1.00000000E+00  0.00000000E+00
  0.00000000E+00  0.00000000E+00  0.00000000E+00  0.00000000E+00  0.00000000E+00
  0.00000000E+00  3.54608874E-02  2.37450915E-01  8.20457708E-01  1.00000000E+00
  1.00000000E+00  1.00000000E+00  0.00000000E+00  0.00000000E+00  0.00000000E+00
  0.00000000E+00  0.00000000E+00  0.00000000E+00  0.00000000E+00  3.54608874E-02
  2.37450915E-01  8.20457708E-01  1.00000000E+00  1.00000000E+00  1.00000000E+00
  0.00000000E+00
Coordinates of each shell                  R   N=         216
  2.32751556E+00  1.34379182E+00  0.00000000E+00  2.32751556E+00  1.34379182E+00
  0.00000000E+00  2.32751556E+00  1.34379182E+00  0.00000000E+00  2.32751556E+00
  1.34379182E+00  0.00000000E+00  2.32751556E+00  1.34379182E+00  0.00000000E+00
  2.32751556E+00  1.34379182E+00  0.00000000E+00  2.32751556E+00 -1.34379182E+00
  0.00000000E+00  2.32751556E+00 -1.34379182E+00  0.00000000E+00  2.32751556E+00
 -1.34379182E+00  0.00000000E+00  2.32751556E+00 -1.34379182E+00  0.00000000E+00
  2.32751556E+00 -1.34379182E+00  0.00000000E+00  2.32751556E+00 -1.34379182E+00
  0.00000000E+00  0.00000000E+00 -2.68758345E+00  0.00000000E+00  0.00000000E+00
 -2.68758345E+00  0.00000000E+00  0.00000000E+00 -2.68758345E+00  0.00000000E+00
  0.00000000E+00 -2.68758345E+00  0.00000000E+00  0.00000000E+00 -2.68758345E+00
  0.00000000E+00  0.00000000E+00 -2.68758345E+00  0.00000000E+00 -2.32751556E+00
 -1.34379182E+00  0.00000000E+00 -2.32751556E+00 -1.34379182E+00  0.00000000E+00
 -2.32751556E+00 -1.34379182E+00  0.00000000E+00 -2.32751556E+00 -1.34379182E+00
  0.00000000E+00 -2.32751556E+00 -1.34379182E+00  0.00000000E+00 -2.32751556E+00
 -1.34379182E+00  0.00000000E+00 -2.32751556E+00  1.34379182E+00  0.00000000E+00
 -2.32751556E+00  1.34379182E+00  0.00000000E+00 -2.32751556E+00  1.34379182E+00
  0.00000000E+00 -2.32751556E+00  1.34379182E+00  0.00000000E+00 -2.32751556E+00
  1.34379182E+00  0.00000000E+00 -2.32751556E+00  1.34379182E+00  0.00000000E+00
  0.00000000E+00  2.68758345E+00  0.00000000E+00  0.00000000E+00  2.68758345E+00
  0.00000000E+00  0.00000000E+00  2.68758345E+00  0.00000000E+00  0.00000000E+00
  2.68758345E+00  0.00000000E+00  0.00000000E+00  2.68758345E+00  0.00000000E+00
  0.00000000E+00  2.68758345E+00  0.00000000E+00  4.54872172E+00  2.62620571E+00
  0.00000000E+00  4.54872172E+00  2.62620571E+00  0.00000000E+00  4.54872172E+00
  2.62620571E+00  0.00000000E+00  4.54872172E+00  2.62620571E+00  0.00000000E+00
  4.54872172E+00  2.62620571E+00  0.00000000E+00  4.54872172E+00  2.62620571E+00
  0.00000000E+00  4.54872172E+00 -2.62620571E+00  0.00000000E+00  4.54872172E+00
 -2.62620571E+00  0.00000000E+00  4.54872172E+00 -2.62620571E+00  0.00000000E+00
  4.54872172E+00 -2.62620571E+00  0.00000000E+00  4.54872172E+00 -2.62620571E+00
  0.00000000E+00  4.54872172E+00 -2.62620571E+00  0.00000000E+00  0.00000000E+00
 -5.25241142E+00  0.00000000E+00  0.00000000E+00 -5.25241142E+00  0.00000000E+00
  0.00000000E+00 -5.25241142E+00  0.00000000E+00  0.00000000E+00 -5.25241142E+00
  0.00000000E+00  0.00000000E+00 -5.25241142E+00  0.00000000E+00  0.00000000E+00
 -5.25241142E+00  0.00000000E+00 -4.54872172E+00 -2.62620571E+00  0.00000000E+00
 -4.54872172E+00 -2.62620571E+00  0.00000000E+00 -4.54872172E+00 -2.62620571E+00
  0.00000000E+00 -4.54872172E+00 -2.62620571E+00  0.00000000E+00 -4.54872172E+00
 -2.62620571E+00  0.00000000E+00 -4.54872172E+00 -2.62620571E+00  0.00000000E+00
 -4.54872172E+00  2.62620571E+00  0.00000000E+00 -4.54872172E+00  2.62620571E+00
  0.00000000E+00 -4.54872172E+00  2.62620571E+00  0.00000000E+00 -4.54872172E+00
  2.62620571E+00  0.00000000E+00 -4.54872172E+00  2.62620571E+00  0.00000000E+00
 -4.54872172E+00  2.62620571E+00  0.00000000E+00  0.00000000E+00  5.25241142E+00
  0.00000000E+00  0.00000000E+00  5.25241142E+00  0.00000000E+00  0.00000000E+00
  5.25241142E+00  0.00000000E+00  0.00000000E+00  5.25241142E+00  0.00000000E+00
  0.00000000E+00  5.25241142E+00  0.00000000E+00  0.00000000E+00  5.25241142E+00
  0.00000000E+00
Num ILSW                                   I              100
ILSW                                       I   N=         100
           0           0           0           0           2           0
           0           0           0           0        1009          -1
           5           0           0           0           0           0
           0           0           0           0           0           0
           1           1           0           0           0           0
           0           0      100000           0          -1           0
           0           0           0           0           0           0
           0           0           0           1           0           0
           0 -2000000000           1           0           0           0
           0           0           4          52           0           0
           0           0          13           0           0           0
           0           0           0          12           0           1
           0           0           0           0           0           0
           0           0           0           0           0           0
           0           0           0           0           0           0
           0           0           0           0           0           0
           0           0           0           0
Num RLSW                                   I               52
RLSW                                       R   N=          52
  7.50000000E-01  7.50000000E-01  1.00000000E+00  1.00000000E+00  2.50000000E-01
  0.00000000E+00  0.00000000E+00  1.00000000E+00  0.00000000E+00  0.00000000E+00
  0.00000000E+00  0.00000000E+00  1.00000000E+00  0.00000000E+00  0.00000000E+00
  0.00000000E+00  0.00000000E+00  1.00000000E+00  0.00000000E+00  0.00000000E+00
  0.00000000E+00  0.00000000E+00  1.00000000E+00  0.00000000E+00  0.00000000E+00
  0.00000000E+00  0.00000000E+00  1.00000000E+00  0.00000000E+00  0.00000000E+00
  0.00000000E+00  0.00000000E+00  1.00000000E+00  0.00000000E+00  0.00000000E+00
  0.00000000E+00  0.00000000E+00  0.00000000E+00  1.00000000E+00  1.00000000E+00
  0.00000000E+00  1.00000000E+00  0.00000000E+00  0.00000000E+00  0.00000000E+00
  0.00000000E+00  0.00000000E+00  0.00000000E+00  0.00000000E+00  0.00000000E+00
  0.00000000E+00  0.00000000E+00
MxBond                                     I                3
NBond                                      I   N=          12
           3           3           3           3           3           3
           1           1           1           1           1           1
IBond                                      I   N=          36
           2           6           7           1           3           8
           2           4           9           3           5          10
           4           6          11           1           5          12
           1           0           0           2           0           0
           3           0           0           4           0           0
           5           0           0           6           0           0
RBond                                      R   N=          36
  1.50000000E+00  1.50000000E+00  1.00000000E+00  1.50000000E+00  1.50000000E+00
  1.00000000E+00  1.50000000E+00  1.50000000E+00  1.00000000E+00  1.50000000E+00
  1.50000000E+00  1.00000000E+00  1.50000000E+00  1.50000000E+00  1.00000000E+00
  1.50000000E+00  1.50000000E+00  1.00000000E+00  1.00000000E+00  0.00000000E+00
  0.00000000E+00  1.00000000E+00  0.00000000E+00  0.00000000E+00  1.00000000E+00
  0.00000000E+00  0.00000000E+00  1.00000000E+00  0.00000000E+00  0.00000000E+00
  1.00000000E+00  0.00000000E+00  0.00000000E+00  1.00000000E+00  0.00000000E+00
  0.00000000E+00
Virial Ratio                               R      2.003712267053037E+00
SCF Energy                                 R     -8.270307211192776E+02
Total Energy                               R     -8.270307211192776E+02
RMS Density                                R      9.457949922666650E-09
Job Status                                 I                1
Nuclear derivative order                   I                0
External E-field                           R   N=          35
  0.00000000E+00  0.00000000E+00  0.00000000E+00  0.00000000E+00  0.00000000E+00
  0.00000000E+00  0.00000000E+00  0.00000000E+00  0.00000000E+00  0.00000000E+00
  0.00000000E+00  0.00000000E+00  0.00000000E+00  0.00000000E+00  0.00000000E+00
  0.00000000E+00  0.00000000E+00  0.00000000E+00  0.00000000E+00  0.00000000E+00
  0.00000000E+00  0.00000000E+00  0.00000000E+00  0.00000000E+00  0.00000000E+00
  0.00000000E+00  0.00000000E+00  0.00000000E+00  0.00000000E+00  0.00000000E+00
  0.00000000E+00  0.00000000E+00  0.00000000E+00  0.00000000E+00  0.00000000E+00
IOpCl                                      I                0
IROHF                                      I                0
Alpha Orbital Energies                     R   N=         264
 -2.48354551E+01 -2.48354470E+01 -2.48354469E+01 -2.48354429E+01 -2.48354428E+01
 -2.48354382E+01 -1.03880756E+01 -1.03878610E+01 -1.03878609E+01 -1.03873719E+01
 -1.03873719E+01 -1.03871323E+01 -1.32117115E+00 -1.31515346E+00 -1.31515341E+00
 -1.30374349E+00 -1.30374343E+00 -1.29816210E+00 -9.52629925E-01 -8.37609828E-01
 -8.37609675E-01 -7.20123009E-01 -7.20122996E-01 -6.45862978E-01 -6.43983243E-01
 -6.33779107E-01 -5.94885116E-01 -5.94884981E-01 -5.78009446E-01 -5.78009368E-01
 -5.69743180E-01 -5.40288909E-01 -5.40288896E-01 -5.14306494E-01 -5.14306491E-01
 -5.06317169E-01 -4.92839894E-01 -4.92839747E-01 -4.82602618E-01 -4.58637819E-01
 -4.58637774E-01 -4.28604864E-01 -3.96890238E-01 -3.05430145E-01 -3.05430120E-01
 -6.50543503E-02 -5.94028046E-02 -5.94027582E-02  1.25521048E-02  1.25522063E-02
  3.61538110E-02  4.75519587E-02  6.26052771E-02  6.26060525E-02  8.31730175E-02
  8.73051940E-02  8.76100570E-02  8.76106148E-02  9.89278619E-02  9.89282049E-02
  1.06823114E-01  1.23040760E-01  1.29169942E-01  1.29172748E-01  1.39470346E-01
  1.39470851E-01  1.49661874E-01  1.58171086E-01  1.58171091E-01  1.72450047E-01
  1.72954517E-01  1.72955424E-01  2.04242995E-01  2.04243902E-01  2.21670209E-01
  2.21671812E-01  2.34196017E-01  2.56301558E-01  2.58608957E-01  2.85549430E-01
  2.85550500E-01  2.91094861E-01  3.17975162E-01  3.17977531E-01  3.19275991E-01
  3.26622610E-01  3.26624395E-01  3.36145706E-01  3.36146399E-01  3.56248546E-01
  3.56250382E-01  3.64364338E-01  3.69747477E-01  3.86749992E-01  3.86753463E-01
  4.08255038E-01  4.08255233E-01  4.09880572E-01  4.09881160E-01  4.34291750E-01
  4.68699539E-01  5.07421756E-01  5.07421777E-01  5.08489555E-01  5.08490860E-01
  5.11469800E-01  5.35319254E-01  5.42012448E-01  5.42012677E-01  5.42215736E-01
  5.70590794E-01  5.79860938E-01  5.99429749E-01  6.02383039E-01  6.02383903E-01
  7.03434118E-01  7.03434759E-01  7.25593892E-01  7.25594924E-01  7.64382835E-01
  8.01693095E-01  8.50198314E-01  8.50199621E-01  8.95958195E-01  9.03311782E-01
  9.03312195E-01  9.49890049E-01  9.49890915E-01  9.88486373E-01  1.00885668E+00
  1.04612316E+00  1.04612358E+00  1.10282139E+00  1.10282159E+00  1.12712443E+00
  1.12712466E+00  1.17050401E+00  1.25253993E+00  1.25670140E+00  1.35196805E+00
  1.37190477E+00  1.39587238E+00  1.39587284E+00  1.41210461E+00  1.41210634E+00
  1.42049734E+00  1.42049955E+00  1.43451835E+00  1.43451993E+00  1.43516301E+00
  1.44201723E+00  1.49617762E+00  1.49706097E+00  1.52068015E+00  1.52068028E+00
  1.52348448E+00  1.54221127E+00  1.54221570E+00  1.56234445E+00  1.56234580E+00
  1.61455154E+00  1.69077973E+00  1.69078025E+00  1.70333147E+00  1.70333207E+00
  1.77070672E+00  1.77070837E+00  1.79192375E+00  1.79192401E+00  1.88350715E+00
  1.89496288E+00  1.98338953E+00  1.98338974E+00  2.04426545E+00  2.04426627E+00
  2.10496664E+00  2.10496683E+00  2.14039995E+00  2.14040041E+00  2.17402703E+00
  2.18634011E+00  2.32265665E+00  2.32265685E+00  2.32966001E+00  2.37259342E+00
  2.52880286E+00  2.65717864E+00  2.65717889E+00  2.79079703E+00  2.79079739E+00
  2.88366994E+00  2.99962092E+00  3.02260079E+00  3.03880706E+00  3.03880722E+00
  3.06730982E+00  3.12901622E+00  3.12901629E+00  3.36259366E+00  3.36259402E+00
  3.60168789E+00  3.69858355E+00  3.69858368E+00  3.74291293E+00  3.75220981E+00
  3.75220990E+00  3.75383992E+00  3.75909415E+00  3.75909427E+00  3.76840059E+00
  3.80512509E+00  3.80794794E+00  3.80794796E+00  3.87618457E+00  3.89854168E+00
  3.92195192E+00  3.92195195E+00  3.92628167E+00  3.92628175E+00  3.96436759E+00
  3.96436767E+00  3.99991964E+00  4.01151225E+00  4.01151231E+00  4.10924518E+00
  4.10924525E+00  4.16718249E+00  4.59983410E+00  4.78892554E+00  4.78892563E+00
  4.82189005E+00  4.88840673E+00  4.88840704E+00  4.95414767E+00  6.28146204E+00
  6.31744604E+00  6.31744728E+00  6.34644923E+00  6.34645059E+00  6.38263700E+00
  6.39416493E+00  6.43647151E+00  6.43647225E+00  6.46723813E+00  6.46723920E+00
  6.46992551E+00  6.55411759E+00  6.71374170E+00  6.71374229E+00  6.80004959E+00
  6.80004980E+00  6.87241402E+00  2.33766650E+01  2.37846094E+01  2.37846096E+01
  2.39261131E+01  2.39261134E+01  2.40247739E+01  6.68492752E+01  6.68857346E+01
  6.68857347E+01  6.69175638E+01  6.69175638E+01  6.69939586E+01
Alpha MO coefficients                      R   N=       69696