 Entering Gaussian System, Link 0=g16
 Initial command:
 /sw/cluster/pub/apps//g16/l1.exe "/data/natrosa/28456/Gau-7097.inp" -scrdir="/data/natrosa/28456/"
 Entering Link 1 = /sw/cluster/pub/apps//g16/l1.exe PID=      7098.
  
 Copyright (c) 1988,1990,1992,1993,1995,1998,2003,2009,2016,
            Gaussian, Inc.  All Rights Reserved.
  
 This is part of the Gaussian(R) 16 program.  It is based on
 the Gaussian(R) 09 system (copyright 2009, Gaussian, Inc.),
 the Gaussian(R) 03 system (copyright 2003, Gaussian, Inc.),
 the Gaussian(R) 98 system (copyright 1998, Gaussian, Inc.),
 the Gaussian(R) 94 system (copyright 1995, Gaussian, Inc.),
 the Gaussian 92(TM) system (copyright 1992, Gaussian, Inc.),
 the Gaussian 90(TM) system (copyright 1990, Gaussian, Inc.),
 the Gaussian 88(TM) system (copyright 1988, Gaussian, Inc.),
 the Gaussian 86(TM) system (copyright 1986, Carnegie Mellon
 University), and the Gaussian 82(TM) system (copyright 1983,
 Carnegie Mellon University). Gaussian is a federally registered
 trademark of Gaussian, Inc.
  
 This software contains proprietary and confidential information,
 including trade secrets, belonging to Gaussian, Inc.
  
 This software is provided under written license and may be
 used, copied, transmitted, or stored only in accord with that
 written license.
  
 The following legend is applicable only to US Government
 contracts under FAR:
  
                    RESTRICTED RIGHTS LEGEND
  
 Use, reproduction and disclosure by the US Government is
 subject to restrictions as set forth in subparagraphs (a)
 and (c) of the Commercial Computer Software - Restricted
 Rights clause in FAR 52.227-19.
  
 Gaussian, Inc.
 340 Quinnipiac St., Bldg. 40, Wallingford CT 06492
  
  
 ---------------------------------------------------------------
 Warning -- This program may not be used in any manner that
 competes with the business of Gaussian, Inc. or will provide
 assistance to any competitor of Gaussian, Inc.  The licensee
 of this program is prohibited from giving any competitor of
 Gaussian, Inc. access to this program.  By using this program,
 the user acknowledges that Gaussian, Inc. is engaged in the
 business of creating and licensing software in the field of
 computational chemistry and represents and warrants to the
 licensee that it is not a competitor of Gaussian, Inc. and that
 it will not use this program in any manner prohibited above.
 ---------------------------------------------------------------
  

 Cite this work as:
 Gaussian 16, Revision A.03,
 M. J. Frisch, G. W. Trucks, H. B. Schlegel, G. E. Scuseria, 
 M. A. Robb, J. R. Cheeseman, G. Scalmani, V. Barone, 
 G. A. Petersson, H. Nakatsuji, X. Li, M. Caricato, A. V. Marenich, 
 J. Bloino, B. G. Janesko, R. Gomperts, B. Mennucci, H. P. Hratchian, 
 J. V. Ortiz, A. F. Izmaylov, J. L. Sonnenberg, D. Williams-Young, 
 F. Ding, F. Lipparini, F. Egidi, J. Goings, B. Peng, A. Petrone, 
 T. Henderson, D. Ranasinghe, V. G. Zakrzewski, J. Gao, N. Rega, 
 G. Zheng, W. Liang, M. Hada, M. Ehara, K. Toyota, R. Fukuda, 
 J. Hasegawa, M. Ishida, T. Nakajima, Y. Honda, O. Kitao, H. Nakai, 
 T. Vreven, K. Throssell, J. A. Montgomery, Jr., J. E. Peralta, 
 F. Ogliaro, M. J. Bearpark, J. J. Heyd, E. N. Brothers, K. N. Kudin, 
 V. N. Staroverov, T. A. Keith, R. Kobayashi, J. Normand, 
 K. Raghavachari, A. P. Rendell, J. C. Burant, S. S. Iyengar, 
 J. Tomasi, M. Cossi, J. M. Millam, M. Klene, C. Adamo, R. Cammi, 
 J. W. Ochterski, R. L. Martin, K. Morokuma, O. Farkas, 
 J. B. Foresman, and D. J. Fox, Gaussian, Inc., Wallingford CT, 2016.
 
 ******************************************
 Gaussian 16:  ES64L-G16RevA.03 25-Dec-2016
                29-Jan-2025 
 ******************************************
 %chk=1-2-DFB-CAT.chk
 --------------------------------------------------------
 #p opt freq PBE1PBE/6-311++G(d,p) density=current nosymm
 --------------------------------------------------------
 1/18=20,19=15,26=3,38=1/1,3;
 2/9=110,12=2,15=1,17=6,18=5,40=1/2;
 3/5=4,6=6,7=1111,11=2,25=1,30=1,71=1,74=-13/1,2,3;
 4//1;
 5/5=2,38=5/2;
 6/7=2,8=2,9=2,10=2,22=-1,28=1/1;
 7/30=1/1,2,3,16;
 1/18=20,19=15,26=3/3(2);
 2/9=110,15=1/2;
 99//99;
 2/9=110,15=1/2;
 3/5=4,6=6,7=1111,11=2,25=1,30=1,71=1,74=-13/1,2,3;
 4/5=5,16=3,69=1/1;
 5/5=2,38=5/2;
 7/30=1/1,2,3,16;
 1/18=20,19=15,26=3/3(-5);
 2/9=110,15=1/2;
 6/7=2,8=2,9=2,10=2,19=2,22=-1,28=1/1;
 99/9=1/99;
 Leave Link    1 at Wed Jan 29 15:35:04 2025, MaxMem=           0 cpu:               0.0 elap:               0.0
 (Enter /sw/cluster/pub/apps//g16/l101.exe)
 ----------
 1 2-DFB SP
 ----------
 Symbolic Z-matrix:
 Charge =  1 Multiplicity = 2
 C                     1.2012    0.69079   0. 
 C                     1.20653  -0.69979   0. 
 C                     0.004    -1.38112   0. 
 C                    -1.19791  -0.68708   0. 
 C                    -1.20921   0.69502   0. 
 C                    -0.00238   1.38576   0. 
 H                     2.14236   1.22886   0. 
 H                     2.12917  -1.26898   0. 
 H                    -2.16358   1.20921   0. 
 H                    -0.00703   2.46986   0. 
 F                    -0.01534  -2.71653  0. 
 F                    -2.34487  -1.37123   0. 
 
 ITRead=  0  0  0  0  0  0  0  0  0  0  0  0
 MicOpt= -1 -1 -1 -1 -1 -1 -1 -1 -1 -1 -1 -1
 NAtoms=     12 NQM=       12 NQMF=       0 NMMI=      0 NMMIF=      0
                NMic=       0 NMicF=      0.
                    Isotopes and Nuclear Properties:
 (Nuclear quadrupole moments (NQMom) in fm**2, nuclear magnetic moments (NMagM)
  in nuclear magnetons)

  Atom         1           2           3           4           5           6           7           8           9          10
 IAtWgt=          12          12          12          12          12          12           1           1           1           1
 AtmWgt=  12.0000000  12.0000000  12.0000000  12.0000000  12.0000000  12.0000000   1.0078250   1.0078250   1.0078250   1.0078250
 NucSpn=           0           0           0           0           0           0           1           1           1           1
 AtZEff=  -0.0000000  -0.0000000  -0.0000000  -0.0000000  -0.0000000  -0.0000000  -0.0000000  -0.0000000  -0.0000000  -0.0000000
 NQMom=    0.0000000   0.0000000   0.0000000   0.0000000   0.0000000   0.0000000   0.0000000   0.0000000   0.0000000   0.0000000
 NMagM=    0.0000000   0.0000000   0.0000000   0.0000000   0.0000000   0.0000000   2.7928460   2.7928460   2.7928460   2.7928460
 AtZNuc=   6.0000000   6.0000000   6.0000000   6.0000000   6.0000000   6.0000000   1.0000000   1.0000000   1.0000000   1.0000000

  Atom        11          12
 IAtWgt=          19          19
 AtmWgt=  18.9984032  18.9984032
 NucSpn=           1           1
 AtZEff=  -0.0000000  -0.0000000
 NQMom=    0.0000000   0.0000000
 NMagM=    2.6288670   2.6288670
 AtZNuc=   9.0000000   9.0000000
 Leave Link  101 at Wed Jan 29 15:35:04 2025, MaxMem=   104857600 cpu:               0.0 elap:               0.0
 (Enter /sw/cluster/pub/apps//g16/l103.exe)

 GradGradGradGradGradGradGradGradGradGradGradGradGradGradGradGradGradGrad
 Berny optimization.
 Initialization pass.
                           ----------------------------
                           !    Initial Parameters    !
                           ! (Angstroms and Degrees)  !
 --------------------------                            --------------------------
 ! Name  Definition              Value          Derivative Info.                !
 --------------------------------------------------------------------------------
 ! R1    R(1,2)                  1.3906         estimate D2E/DX2                !
 ! R2    R(1,6)                  1.3898         estimate D2E/DX2                !
 ! R3    R(1,7)                  1.0841         estimate D2E/DX2                !
 ! R4    R(2,3)                  1.3821         estimate D2E/DX2                !
 ! R5    R(2,8)                  1.0841         estimate D2E/DX2                !
 ! R6    R(3,4)                  1.3879         estimate D2E/DX2                !
 ! R7    R(3,11)                 1.3356         estimate D2E/DX2                !
 ! R8    R(4,5)                  1.3821         estimate D2E/DX2                !
 ! R9    R(4,12)                 1.3355         estimate D2E/DX2                !
 ! R10   R(5,6)                  1.3905         estimate D2E/DX2                !
 ! R11   R(5,9)                  1.0841         estimate D2E/DX2                !
 ! R12   R(6,10)                 1.0841         estimate D2E/DX2                !
 ! A1    A(2,1,6)              120.2224         estimate D2E/DX2                !
 ! A2    A(2,1,7)              119.5376         estimate D2E/DX2                !
 ! A3    A(6,1,7)              120.2399         estimate D2E/DX2                !
 ! A4    A(1,2,3)              119.3153         estimate D2E/DX2                !
 ! A5    A(1,2,8)              121.8904         estimate D2E/DX2                !
 ! A6    A(3,2,8)              118.7943         estimate D2E/DX2                !
 ! A7    A(2,3,4)              120.4609         estimate D2E/DX2                !
 ! A8    A(2,3,11)             120.3642         estimate D2E/DX2                !
 ! A9    A(4,3,11)             119.1749         estimate D2E/DX2                !
 ! A10   A(3,4,5)              120.4728         estimate D2E/DX2                !
 ! A11   A(3,4,12)             119.1798         estimate D2E/DX2                !
 ! A12   A(5,4,12)             120.3474         estimate D2E/DX2                !
 ! A13   A(4,5,6)              119.3167         estimate D2E/DX2                !
 ! A14   A(4,5,9)              118.7828         estimate D2E/DX2                !
 ! A15   A(6,5,9)              121.9005         estimate D2E/DX2                !
 ! A16   A(1,6,5)              120.212          estimate D2E/DX2                !
 ! A17   A(1,6,10)             120.249          estimate D2E/DX2                !
 ! A18   A(5,6,10)             119.5391         estimate D2E/DX2                !
 ! D1    D(6,1,2,3)              0.0            estimate D2E/DX2                !
 ! D2    D(6,1,2,8)            180.0            estimate D2E/DX2                !
 ! D3    D(7,1,2,3)            180.0            estimate D2E/DX2                !
 ! D4    D(7,1,2,8)              0.0            estimate D2E/DX2                !
 ! D5    D(2,1,6,5)              0.0            estimate D2E/DX2                !
 ! D6    D(2,1,6,10)           180.0            estimate D2E/DX2                !
 ! D7    D(7,1,6,5)            180.0            estimate D2E/DX2                !
 ! D8    D(7,1,6,10)             0.0            estimate D2E/DX2                !
 ! D9    D(1,2,3,4)              0.0            estimate D2E/DX2                !
 ! D10   D(1,2,3,11)           180.0            estimate D2E/DX2                !
 ! D11   D(8,2,3,4)            180.0            estimate D2E/DX2                !
 ! D12   D(8,2,3,11)             0.0            estimate D2E/DX2                !
 ! D13   D(2,3,4,5)              0.0            estimate D2E/DX2                !
 ! D14   D(2,3,4,12)           180.0            estimate D2E/DX2                !
 ! D15   D(11,3,4,5)           180.0            estimate D2E/DX2                !
 ! D16   D(11,3,4,12)            0.0            estimate D2E/DX2                !
 ! D17   D(3,4,5,6)              0.0            estimate D2E/DX2                !
 ! D18   D(3,4,5,9)            180.0            estimate D2E/DX2                !
 ! D19   D(12,4,5,6)           180.0            estimate D2E/DX2                !
 ! D20   D(12,4,5,9)             0.0            estimate D2E/DX2                !
 ! D21   D(4,5,6,1)              0.0            estimate D2E/DX2                !
 ! D22   D(4,5,6,10)           180.0            estimate D2E/DX2                !
 ! D23   D(9,5,6,1)            180.0            estimate D2E/DX2                !
 ! D24   D(9,5,6,10)             0.0            estimate D2E/DX2                !
 --------------------------------------------------------------------------------
 Trust Radius=3.00D-01 FncErr=1.00D-07 GrdErr=1.00D-06 EigMax=2.50D+02 EigMin=1.00D-04
 Number of steps in this run=     64 maximum allowed number of steps=    100.
 GradGradGradGradGradGradGradGradGradGradGradGradGradGradGradGradGradGrad

 Leave Link  103 at Wed Jan 29 15:35:04 2025, MaxMem=   104857600 cpu:               0.0 elap:               0.0
 (Enter /sw/cluster/pub/apps//g16/l202.exe)
                          Input orientation:                          
 ---------------------------------------------------------------------
 Center     Atomic      Atomic             Coordinates (Angstroms)
 Number     Number       Type             X           Y           Z
 ---------------------------------------------------------------------
      1          6           0        1.201202    0.690786    0.000000
      2          6           0        1.206528   -0.699794    0.000000
      3          6           0        0.003996   -1.381117    0.000000
      4          6           0       -1.197907   -0.687075    0.000000
      5          6           0       -1.209206    0.695019    0.000000
      6          6           0       -0.002380    1.385757    0.000000
      7          1           0        2.142364    1.228859    0.000000
      8          1           0        2.129171   -1.268984    0.000000
      9          1           0       -2.163585    1.209209    0.000000
     10          1           0       -0.007035    2.469856    0.000000
     11          9           0       -0.015338   -2.716531   -0.000000
     12          9           0       -2.344874   -1.371234    0.000000
 ---------------------------------------------------------------------
                    Distance matrix (angstroms):
                    1          2          3          4          5
     1  C    0.000000
     2  C    1.390590   0.000000
     3  C    2.392924   1.382131   0.000000
     4  C    2.766627   2.404469   1.387899   0.000000
     5  C    2.410412   2.789494   2.404621   1.382141   0.000000
     6  C    1.389818   2.410598   2.766882   2.392889   1.390521
     7  H    1.084117   2.143710   3.374107   3.850743   3.393820
     8  H    2.168369   1.084088   2.128132   3.377583   3.873251
     9  H    3.404489   3.873235   3.377601   2.128010   1.084080
    10  H    2.150564   3.394026   3.850989   3.374076   2.143656
    11  F    3.617980   2.358005   1.335554   2.348863   3.614415
    12  F    4.102021   3.614317   2.348890   1.335517   2.357783
                    6          7          8          9         10
     6  C    0.000000
     7  H    2.150476   0.000000
     8  H    3.404579   2.497878   0.000000
     9  H    2.168403   4.305994   4.956732   0.000000
    10  H    1.084108   2.481933   4.306077   2.497987   0.000000
    11  F    4.102309   4.496864   2.587337   4.475086   5.186393
    12  F    3.617772   5.186115   4.475213   2.586803   4.496606
                   11         12
    11  F    0.000000
    12  F    2.690085   0.000000
 Symmetry turned off by external request.
 Stoichiometry    C6H4F2(1+,2)
 Framework group  CS[SG(C6H4F2)]
 Deg. of freedom    21
 Full point group                 CS      NOp   2
 Rotational constants (GHZ):           3.2803792           2.2400921           1.3311094
 Leave Link  202 at Wed Jan 29 15:35:04 2025, MaxMem=   104857600 cpu:               0.0 elap:               0.0
 (Enter /sw/cluster/pub/apps//g16/l301.exe)
 Standard basis: 6-311++G(d,p) (5D, 7F)
 Ernie: Thresh=  0.10000D-02 Tol=  0.10000D-05 Strict=F.
   204 basis functions,   324 primitive gaussians,   212 cartesian basis functions
    29 alpha electrons       28 beta electrons
       nuclear repulsion energy       348.4945587271 Hartrees.
 IExCor= 1009 DFT=T Ex+Corr=PBE1PBE ExCW=0 ScaHFX=  0.250000
 ScaDFX=  0.750000  0.750000  1.000000  1.000000 ScalE2=  1.000000  1.000000
 IRadAn=      5 IRanWt=     -1 IRanGd=            0 ICorTp=0 IEmpDi=  4
 NAtoms=   12 NActive=   12 NUniq=   12 SFac= 1.00D+00 NAtFMM=   60 NAOKFM=F Big=F
 Integral buffers will be    131072 words long.
 Raffenetti 2 integral format.
 Two-electron integral symmetry is turned off.
 Leave Link  301 at Wed Jan 29 15:35:04 2025, MaxMem=   104857600 cpu:               0.0 elap:               0.0
 (Enter /sw/cluster/pub/apps//g16/l302.exe)
 NPDir=0 NMtPBC=     1 NCelOv=     1 NCel=       1 NClECP=     1 NCelD=      1
         NCelK=      1 NCelE2=     1 NClLst=     1 CellRange=     0.0.
 One-electron integrals computed using PRISM.
 NBasis=   204 RedAO= T EigKep=  1.71D-06  NBF=   204
 NBsUse=   204 1.00D-06 EigRej= -1.00D+00 NBFU=   204
 Precomputing XC quadrature grid using
 IXCGrd= 4 IRadAn=           5 IRanWt=          -1 IRanGd=           0 AccXCQ= 0.00D+00.
 Generated NRdTot=       0 NPtTot=           0 NUsed=           0 NTot=          32
 NSgBfM=   212   212   212   212   212 MxSgAt=    12 MxSgA2=    12.
 Leave Link  302 at Wed Jan 29 15:35:04 2025, MaxMem=   104857600 cpu:               0.1 elap:               0.2
 (Enter /sw/cluster/pub/apps//g16/l303.exe)
 DipDrv:  MaxL=1.
 Leave Link  303 at Wed Jan 29 15:35:04 2025, MaxMem=   104857600 cpu:               0.0 elap:               0.2
 (Enter /sw/cluster/pub/apps//g16/l401.exe)
 ExpMin= 3.60D-02 ExpMax= 1.14D+04 ExpMxC= 1.72D+03 IAcc=3 IRadAn=         5 AccDes= 0.00D+00
 Harris functional with IExCor= 1009 and IRadAn=       5 diagonalized for initial guess.
 HarFok:  IExCor= 1009 AccDes= 0.00D+00 IRadAn=         5 IDoV= 1 UseB2=F ITyADJ=14
 ICtDFT=  3500011 ScaDFX=  1.000000  1.000000  1.000000  1.000000
 FoFCou: FMM=F IPFlag=           0 FMFlag=      100000 FMFlg1=           0
         NFxFlg=           0 DoJE=T BraDBF=F KetDBF=T FulRan=T
         wScrn=  0.000000 ICntrl=       500 IOpCl=  0 I1Cent=   200000004 NGrid=           0
         NMat0=    1 NMatS0=      1 NMatT0=    0 NMatD0=    1 NMtDS0=    0 NMtDT0=    0
 Symmetry not used in FoFCou.
 Harris En= -430.129047873714    
 JPrj=0 DoOrth=F DoCkMO=F.
 Initial guess <Sx>= 0.0000 <Sy>= 0.0000 <Sz>= 0.5000 <S**2>= 0.7500 S= 0.5000
 Leave Link  401 at Wed Jan 29 15:35:06 2025, MaxMem=   104857600 cpu:               1.5 elap:               1.5
 (Enter /sw/cluster/pub/apps//g16/l502.exe)
 Two-electron integral symmetry not used.
 UHF open shell SCF:
 Using DIIS extrapolation, IDIIS=  1040.
 NGot=   104857600 LenX=   104764860 LenY=   104719475
 Requested convergence on RMS density matrix=1.00D-08 within 128 cycles.
 Requested convergence on MAX density matrix=1.00D-06.
 Requested convergence on             energy=1.00D-06.
 No special actions if energy rises.
 Fock matrices will be formed incrementally for  20 cycles.

 Cycle   1  Pass 1  IDiag  1:
 FoFJK:  IHMeth= 1 ICntrl=       0 DoSepK=F KAlg= 0 I1Cent=           0 FoldK=F
 IRaf= 970000000 NMat=       1 IRICut=       1 DoRegI=T DoRafI=F ISym2E= 0 IDoP0=0 IntGTp=1.
 FoFCou: FMM=F IPFlag=           0 FMFlag=      100000 FMFlg1=           0
         NFxFlg=           0 DoJE=F BraDBF=F KetDBF=F FulRan=T
         wScrn=  0.000000 ICntrl=         0 IOpCl=  1 I1Cent=           0 NGrid=           0
         NMat0=    1 NMatS0=      1 NMatT0=    0 NMatD0=    1 NMtDS0=    0 NMtDT0=    0
 Symmetry not used in FoFCou.
 E= -429.901953879030    
 DIIS: error= 3.43D-02 at cycle   1 NSaved=   1.
 NSaved= 1 IEnMin= 1 EnMin= -429.901953879030     IErMin= 1 ErrMin= 3.43D-02
 ErrMax= 3.43D-02  0.00D+00 EMaxC= 1.00D-01 BMatC= 5.63D-01 BMatP= 5.63D-01
 IDIUse=3 WtCom= 6.57D-01 WtEn= 3.43D-01
 Coeff-Com:  0.100D+01
 Coeff-En:   0.100D+01
 Coeff:      0.100D+01
 Gap=     0.308 Goal=   None    Shift=    0.000
 Gap=     0.001 Goal=   None    Shift=    0.000
 GapD=    0.001 DampG=0.250 DampE=0.500 DampFc=0.2500 IDamp=-1.
 Damping current iteration by 2.50D-01
 RMSDP=1.01D-02 MaxDP=3.11D-01              OVMax= 5.69D-01

 Cycle   2  Pass 1  IDiag  1:
 RMSU=  2.51D-03    CP:  1.00D+00
 E= -429.941799360359     Delta-E=       -0.039845481328 Rises=F Damp=T
 DIIS: error= 1.37D-02 at cycle   2 NSaved=   2.
 NSaved= 2 IEnMin= 2 EnMin= -429.941799360359     IErMin= 2 ErrMin= 1.37D-02
 ErrMax= 1.37D-02  0.00D+00 EMaxC= 1.00D-01 BMatC= 1.41D-01 BMatP= 5.63D-01
 IDIUse=3 WtCom= 8.63D-01 WtEn= 1.37D-01
 Coeff-Com: -0.513D+00 0.151D+01
 Coeff-En:   0.000D+00 0.100D+01
 Coeff:     -0.443D+00 0.144D+01
 Gap=     0.316 Goal=   None    Shift=    0.000
 Gap=     0.022 Goal=   None    Shift=    0.000
 RMSDP=8.57D-03 MaxDP=3.29D-01 DE=-3.98D-02 OVMax= 4.85D-01

 Cycle   3  Pass 1  IDiag  1:
 RMSU=  5.33D-03    CP:  9.09D-01  2.87D+00
 E= -430.008739886213     Delta-E=       -0.066940525854 Rises=F Damp=F
 DIIS: error= 1.54D-02 at cycle   3 NSaved=   3.
 NSaved= 3 IEnMin= 3 EnMin= -430.008739886213     IErMin= 2 ErrMin= 1.37D-02
 ErrMax= 1.54D-02  0.00D+00 EMaxC= 1.00D-01 BMatC= 6.15D-02 BMatP= 1.41D-01
 IDIUse=3 WtCom= 8.46D-01 WtEn= 1.54D-01
 Coeff-Com: -0.401D+00 0.784D+00 0.618D+00
 Coeff-En:   0.000D+00 0.000D+00 0.100D+01
 Coeff:     -0.339D+00 0.663D+00 0.677D+00
 Gap=     0.261 Goal=   None    Shift=    0.000
 Gap=     0.077 Goal=   None    Shift=    0.000
 RMSDP=1.38D-03 MaxDP=4.64D-02 DE=-6.69D-02 OVMax= 1.36D-01

 Cycle   4  Pass 1  IDiag  1:
 RMSU=  8.51D-04    CP:  9.11D-01  3.00D+00  8.08D-01
 E= -430.021736859727     Delta-E=       -0.012996973514 Rises=F Damp=F
 DIIS: error= 7.89D-03 at cycle   4 NSaved=   4.
 NSaved= 4 IEnMin= 4 EnMin= -430.021736859727     IErMin= 4 ErrMin= 7.89D-03
 ErrMax= 7.89D-03  0.00D+00 EMaxC= 1.00D-01 BMatC= 1.84D-02 BMatP= 6.15D-02
 IDIUse=3 WtCom= 9.21D-01 WtEn= 7.89D-02
 Coeff-Com: -0.144D+00 0.244D+00 0.408D+00 0.492D+00
 Coeff-En:   0.000D+00 0.000D+00 0.237D+00 0.763D+00
 Coeff:     -0.133D+00 0.225D+00 0.395D+00 0.513D+00
 Gap=     0.251 Goal=   None    Shift=    0.000
 Gap=     0.076 Goal=   None    Shift=    0.000
 RMSDP=6.33D-04 MaxDP=1.93D-02 DE=-1.30D-02 OVMax= 4.44D-02

 Cycle   5  Pass 1  IDiag  1:
 RMSU=  2.92D-04    CP:  9.06D-01  2.88D+00  8.59D-01  7.03D-01
 E= -430.026528591995     Delta-E=       -0.004791732268 Rises=F Damp=F
 DIIS: error= 1.43D-03 at cycle   5 NSaved=   5.
 NSaved= 5 IEnMin= 5 EnMin= -430.026528591995     IErMin= 5 ErrMin= 1.43D-03
 ErrMax= 1.43D-03  0.00D+00 EMaxC= 1.00D-01 BMatC= 5.92D-04 BMatP= 1.84D-02
 IDIUse=3 WtCom= 9.86D-01 WtEn= 1.43D-02
 Coeff-Com: -0.288D-01 0.359D-01 0.951D-01 0.201D+00 0.697D+00
 Coeff-En:   0.000D+00 0.000D+00 0.000D+00 0.000D+00 0.100D+01
 Coeff:     -0.284D-01 0.354D-01 0.937D-01 0.198D+00 0.701D+00
 Gap=     0.252 Goal=   None    Shift=    0.000
 Gap=     0.081 Goal=   None    Shift=    0.000
 RMSDP=1.63D-04 MaxDP=6.71D-03 DE=-4.79D-03 OVMax= 1.15D-02

 Cycle   6  Pass 1  IDiag  1:
 RMSU=  1.29D-04    CP:  9.04D-01  2.88D+00  8.62D-01  7.16D-01  9.66D-01
 E= -430.026745841485     Delta-E=       -0.000217249490 Rises=F Damp=F
 DIIS: error= 6.40D-04 at cycle   6 NSaved=   6.
 NSaved= 6 IEnMin= 6 EnMin= -430.026745841485     IErMin= 6 ErrMin= 6.40D-04
 ErrMax= 6.40D-04  0.00D+00 EMaxC= 1.00D-01 BMatC= 7.57D-05 BMatP= 5.92D-04
 IDIUse=3 WtCom= 9.94D-01 WtEn= 6.40D-03
 Coeff-Com:  0.123D-01-0.229D-01-0.390D-01-0.429D-01 0.175D+00 0.918D+00
 Coeff-En:   0.000D+00 0.000D+00 0.000D+00 0.000D+00 0.000D+00 0.100D+01
 Coeff:      0.122D-01-0.227D-01-0.388D-01-0.426D-01 0.173D+00 0.918D+00
 Gap=     0.250 Goal=   None    Shift=    0.000
 Gap=     0.083 Goal=   None    Shift=    0.000
 RMSDP=8.63D-05 MaxDP=2.68D-03 DE=-2.17D-04 OVMax= 4.26D-03

 Cycle   7  Pass 1  IDiag  1:
 RMSU=  6.44D-05    CP:  9.04D-01  2.90D+00  8.65D-01  7.31D-01  1.04D+00
                    CP:  1.00D+00
 E= -430.026795365819     Delta-E=       -0.000049524334 Rises=F Damp=F
 DIIS: error= 2.43D-04 at cycle   7 NSaved=   7.
 NSaved= 7 IEnMin= 7 EnMin= -430.026795365819     IErMin= 7 ErrMin= 2.43D-04
 ErrMax= 2.43D-04  0.00D+00 EMaxC= 1.00D-01 BMatC= 8.84D-06 BMatP= 7.57D-05
 IDIUse=3 WtCom= 9.98D-01 WtEn= 2.43D-03
 Coeff-Com:  0.707D-02-0.890D-02-0.216D-01-0.488D-01-0.151D+00 0.735D-01
 Coeff-Com:  0.115D+01
 Coeff-En:   0.000D+00 0.000D+00 0.000D+00 0.000D+00 0.000D+00 0.000D+00
 Coeff-En:   0.100D+01
 Coeff:      0.705D-02-0.888D-02-0.215D-01-0.486D-01-0.150D+00 0.734D-01
 Coeff:      0.115D+01
 Gap=     0.249 Goal=   None    Shift=    0.000
 Gap=     0.084 Goal=   None    Shift=    0.000
 RMSDP=3.89D-05 MaxDP=1.31D-03 DE=-4.95D-05 OVMax= 2.77D-03

 Cycle   8  Pass 1  IDiag  1:
 RMSU=  1.36D-05    CP:  9.04D-01  2.90D+00  8.66D-01  7.32D-01  1.09D+00
                    CP:  1.17D+00  1.38D+00
 E= -430.026804467067     Delta-E=       -0.000009101248 Rises=F Damp=F
 DIIS: error= 5.45D-05 at cycle   8 NSaved=   8.
 NSaved= 8 IEnMin= 8 EnMin= -430.026804467067     IErMin= 8 ErrMin= 5.45D-05
 ErrMax= 5.45D-05  0.00D+00 EMaxC= 1.00D-01 BMatC= 8.63D-07 BMatP= 8.84D-06
 IDIUse=1 WtCom= 1.00D+00 WtEn= 0.00D+00
 Coeff-Com:  0.174D-02-0.200D-02-0.394D-02-0.115D-01-0.536D-01-0.121D-01
 Coeff-Com:  0.298D+00 0.783D+00
 Coeff:      0.174D-02-0.200D-02-0.394D-02-0.115D-01-0.536D-01-0.121D-01
 Coeff:      0.298D+00 0.783D+00
 Gap=     0.249 Goal=   None    Shift=    0.000
 Gap=     0.084 Goal=   None    Shift=    0.000
 RMSDP=1.07D-05 MaxDP=4.30D-04 DE=-9.10D-06 OVMax= 3.63D-04

 Cycle   9  Pass 1  IDiag  1:
 RMSU=  4.77D-06    CP:  9.04D-01  2.90D+00  8.66D-01  7.32D-01  1.08D+00
                    CP:  1.17D+00  1.46D+00  1.20D+00
 E= -430.026804644630     Delta-E=       -0.000000177564 Rises=F Damp=F
 DIIS: error= 6.07D-05 at cycle   9 NSaved=   9.
 NSaved= 9 IEnMin= 9 EnMin= -430.026804644630     IErMin= 8 ErrMin= 5.45D-05
 ErrMax= 6.07D-05  0.00D+00 EMaxC= 1.00D-01 BMatC= 7.46D-07 BMatP= 8.63D-07
 IDIUse=1 WtCom= 1.00D+00 WtEn= 0.00D+00
 Coeff-Com: -0.605D-03 0.929D-03 0.347D-02 0.614D-02 0.844D-02-0.239D-01
 Coeff-Com: -0.109D+00 0.526D+00 0.588D+00
 Coeff:     -0.605D-03 0.929D-03 0.347D-02 0.614D-02 0.844D-02-0.239D-01
 Coeff:     -0.109D+00 0.526D+00 0.588D+00
 Gap=     0.249 Goal=   None    Shift=    0.000
 Gap=     0.084 Goal=   None    Shift=    0.000
 RMSDP=7.28D-06 MaxDP=2.26D-04 DE=-1.78D-07 OVMax= 1.79D-04

 Cycle  10  Pass 1  IDiag  1:
 RMSU=  3.48D-06    CP:  9.04D-01  2.90D+00  8.66D-01  7.32D-01  1.09D+00
                    CP:  1.19D+00  1.43D+00  1.34D+00  8.32D-01
 E= -430.026804805455     Delta-E=       -0.000000160824 Rises=F Damp=F
 DIIS: error= 1.30D-05 at cycle  10 NSaved=  10.
 NSaved=10 IEnMin=10 EnMin= -430.026804805455     IErMin=10 ErrMin= 1.30D-05
 ErrMax= 1.30D-05  0.00D+00 EMaxC= 1.00D-01 BMatC= 4.04D-08 BMatP= 7.46D-07
 IDIUse=1 WtCom= 1.00D+00 WtEn= 0.00D+00
 Coeff-Com: -0.122D-03 0.123D-03 0.995D-03 0.186D-02 0.720D-02-0.255D-02
 Coeff-Com: -0.504D-01-0.256D-01 0.151D+00 0.917D+00
 Coeff:     -0.122D-03 0.123D-03 0.995D-03 0.186D-02 0.720D-02-0.255D-02
 Coeff:     -0.504D-01-0.256D-01 0.151D+00 0.917D+00
 Gap=     0.249 Goal=   None    Shift=    0.000
 Gap=     0.084 Goal=   None    Shift=    0.000
 RMSDP=2.90D-06 MaxDP=1.02D-04 DE=-1.61D-07 OVMax= 1.06D-04

 Cycle  11  Pass 1  IDiag  1:
 RMSU=  9.18D-07    CP:  9.04D-01  2.90D+00  8.66D-01  7.32D-01  1.09D+00
                    CP:  1.19D+00  1.45D+00  1.41D+00  9.75D-01  9.47D-01
 E= -430.026804826016     Delta-E=       -0.000000020561 Rises=F Damp=F
 DIIS: error= 4.77D-06 at cycle  11 NSaved=  11.
 NSaved=11 IEnMin=11 EnMin= -430.026804826016     IErMin=11 ErrMin= 4.77D-06
 ErrMax= 4.77D-06  0.00D+00 EMaxC= 1.00D-01 BMatC= 3.11D-09 BMatP= 4.04D-08
 IDIUse=1 WtCom= 1.00D+00 WtEn= 0.00D+00
 Coeff-Com:  0.105D-03-0.155D-03-0.383D-03-0.788D-03-0.677D-03 0.215D-02
 Coeff-Com:  0.139D-01-0.664D-01-0.618D-01-0.527D-01 0.117D+01
 Coeff:      0.105D-03-0.155D-03-0.383D-03-0.788D-03-0.677D-03 0.215D-02
 Coeff:      0.139D-01-0.664D-01-0.618D-01-0.527D-01 0.117D+01
 Gap=     0.249 Goal=   None    Shift=    0.000
 Gap=     0.084 Goal=   None    Shift=    0.000
 RMSDP=9.49D-07 MaxDP=3.47D-05 DE=-2.06D-08 OVMax= 9.58D-05

 Cycle  12  Pass 1  IDiag  1:
 RMSU=  4.23D-07    CP:  9.04D-01  2.90D+00  8.66D-01  7.32D-01  1.09D+00
                    CP:  1.19D+00  1.45D+00  1.43D+00  1.01D+00  1.03D+00
                    CP:  1.34D+00
 E= -430.026804830680     Delta-E=       -0.000000004665 Rises=F Damp=F
 DIIS: error= 2.78D-06 at cycle  12 NSaved=  12.
 NSaved=12 IEnMin=12 EnMin= -430.026804830680     IErMin=12 ErrMin= 2.78D-06
 ErrMax= 2.78D-06  0.00D+00 EMaxC= 1.00D-01 BMatC= 6.49D-10 BMatP= 3.11D-09
 IDIUse=1 WtCom= 1.00D+00 WtEn= 0.00D+00
 Coeff-Com:  0.377D-04-0.503D-04-0.889D-04-0.230D-03-0.646D-03 0.126D-03
 Coeff-Com:  0.517D-02 0.400D-02-0.187D-01-0.951D-01-0.110D-01 0.112D+01
 Coeff:      0.377D-04-0.503D-04-0.889D-04-0.230D-03-0.646D-03 0.126D-03
 Coeff:      0.517D-02 0.400D-02-0.187D-01-0.951D-01-0.110D-01 0.112D+01
 Gap=     0.249 Goal=   None    Shift=    0.000
 Gap=     0.084 Goal=   None    Shift=    0.000
 RMSDP=3.57D-07 MaxDP=8.18D-06 DE=-4.66D-09 OVMax= 4.12D-05

 Cycle  13  Pass 1  IDiag  1:
 RMSU=  1.36D-07    CP:  9.04D-01  2.90D+00  8.66D-01  7.32D-01  1.09D+00
                    CP:  1.19D+00  1.45D+00  1.43D+00  1.01D+00  1.02D+00
                    CP:  1.56D+00  1.44D+00
 E= -430.026804831514     Delta-E=       -0.000000000833 Rises=F Damp=F
 DIIS: error= 1.21D-06 at cycle  13 NSaved=  13.
 NSaved=13 IEnMin=13 EnMin= -430.026804831514     IErMin=13 ErrMin= 1.21D-06
 ErrMax= 1.21D-06  0.00D+00 EMaxC= 1.00D-01 BMatC= 3.03D-10 BMatP= 6.49D-10
 IDIUse=1 WtCom= 1.00D+00 WtEn= 0.00D+00
 Coeff-Com:  0.650D-05-0.589D-05 0.327D-04 0.212D-04-0.241D-03-0.402D-03
 Coeff-Com:  0.113D-03 0.171D-01 0.224D-02-0.473D-01-0.265D+00 0.656D+00
 Coeff-Com:  0.638D+00
 Coeff:      0.650D-05-0.589D-05 0.327D-04 0.212D-04-0.241D-03-0.402D-03
 Coeff:      0.113D-03 0.171D-01 0.224D-02-0.473D-01-0.265D+00 0.656D+00
 Coeff:      0.638D+00
 Gap=     0.249 Goal=   None    Shift=    0.000
 Gap=     0.084 Goal=   None    Shift=    0.000
 RMSDP=1.67D-07 MaxDP=4.25D-06 DE=-8.33D-10 OVMax= 1.66D-05

 Cycle  14  Pass 1  IDiag  1:
 RMSU=  7.24D-08    CP:  9.04D-01  2.90D+00  8.66D-01  7.32D-01  1.09D+00
                    CP:  1.19D+00  1.45D+00  1.42D+00  1.00D+00  1.02D+00
                    CP:  1.64D+00  1.67D+00  1.03D+00
 E= -430.026804831726     Delta-E=       -0.000000000213 Rises=F Damp=F
 DIIS: error= 4.56D-07 at cycle  14 NSaved=  14.
 NSaved=14 IEnMin=14 EnMin= -430.026804831726     IErMin=14 ErrMin= 4.56D-07
 ErrMax= 4.56D-07  0.00D+00 EMaxC= 1.00D-01 BMatC= 4.69D-11 BMatP= 3.03D-10
 IDIUse=1 WtCom= 1.00D+00 WtEn= 0.00D+00
 Coeff-Com: -0.330D-05 0.489D-05 0.291D-04 0.522D-04 0.122D-03-0.759D-04
 Coeff-Com: -0.130D-02 0.111D-02 0.598D-02 0.178D-01-0.334D-01-0.252D+00
 Coeff-Com:  0.207D+00 0.105D+01
 Coeff:     -0.330D-05 0.489D-05 0.291D-04 0.522D-04 0.122D-03-0.759D-04
 Coeff:     -0.130D-02 0.111D-02 0.598D-02 0.178D-01-0.334D-01-0.252D+00
 Coeff:      0.207D+00 0.105D+01
 Gap=     0.249 Goal=   None    Shift=    0.000
 Gap=     0.084 Goal=   None    Shift=    0.000
 RMSDP=1.17D-07 MaxDP=3.29D-06 DE=-2.13D-10 OVMax= 1.20D-05

 Cycle  15  Pass 1  IDiag  1:
 RMSU=  3.08D-08    CP:  9.04D-01  2.90D+00  8.66D-01  7.32D-01  1.09D+00
                    CP:  1.19D+00  1.45D+00  1.42D+00  9.99D-01  1.01D+00
                    CP:  1.68D+00  1.83D+00  1.36D+00  1.26D+00
 E= -430.026804831780     Delta-E=       -0.000000000054 Rises=F Damp=F
 DIIS: error= 2.01D-07 at cycle  15 NSaved=  15.
 NSaved=15 IEnMin=15 EnMin= -430.026804831780     IErMin=15 ErrMin= 2.01D-07
 ErrMax= 2.01D-07  0.00D+00 EMaxC= 1.00D-01 BMatC= 7.57D-12 BMatP= 4.69D-11
 IDIUse=1 WtCom= 1.00D+00 WtEn= 0.00D+00
 Coeff-Com: -0.151D-05 0.190D-05 0.661D-05 0.166D-04 0.568D-04 0.982D-05
 Coeff-Com: -0.423D-03-0.103D-02 0.161D-02 0.978D-02 0.126D-01-0.152D+00
 Coeff-Com:  0.765D-01 0.295D+00 0.758D+00
 Coeff:     -0.151D-05 0.190D-05 0.661D-05 0.166D-04 0.568D-04 0.982D-05
 Coeff:     -0.423D-03-0.103D-02 0.161D-02 0.978D-02 0.126D-01-0.152D+00
 Coeff:      0.765D-01 0.295D+00 0.758D+00
 Gap=     0.249 Goal=   None    Shift=    0.000
 Gap=     0.084 Goal=   None    Shift=    0.000
 RMSDP=2.58D-08 MaxDP=8.98D-07 DE=-5.39D-11 OVMax= 5.78D-06

 Cycle  16  Pass 1  IDiag  1:
 RMSU=  1.18D-08    CP:  9.04D-01  2.90D+00  8.66D-01  7.32D-01  1.09D+00
                    CP:  1.19D+00  1.45D+00  1.42D+00  9.99D-01  1.01D+00
                    CP:  1.69D+00  1.85D+00  1.42D+00  1.37D+00  1.45D+00
 E= -430.026804831788     Delta-E=       -0.000000000008 Rises=F Damp=F
 DIIS: error= 1.59D-07 at cycle  16 NSaved=  16.
 NSaved=16 IEnMin=16 EnMin= -430.026804831788     IErMin=16 ErrMin= 1.59D-07
 ErrMax= 1.59D-07  0.00D+00 EMaxC= 1.00D-01 BMatC= 4.42D-12 BMatP= 7.57D-12
 IDIUse=1 WtCom= 1.00D+00 WtEn= 0.00D+00
 Coeff-Com:  0.284D-06-0.597D-06-0.633D-05-0.893D-05-0.139D-04 0.282D-04
 Coeff-Com:  0.226D-03-0.780D-03-0.124D-02-0.114D-02 0.172D-01-0.347D-02
 Coeff-Com:  0.286D-01-0.260D+00 0.204D+00 0.102D+01
 Coeff:      0.284D-06-0.597D-06-0.633D-05-0.893D-05-0.139D-04 0.282D-04
 Coeff:      0.226D-03-0.780D-03-0.124D-02-0.114D-02 0.172D-01-0.347D-02
 Coeff:      0.286D-01-0.260D+00 0.204D+00 0.102D+01
 Gap=     0.249 Goal=   None    Shift=    0.000
 Gap=     0.084 Goal=   None    Shift=    0.000
 RMSDP=2.97D-08 MaxDP=1.13D-06 DE=-7.96D-12 OVMax= 8.16D-06

 Cycle  17  Pass 1  IDiag  1:
 RMSU=  1.04D-08    CP:  9.04D-01  2.90D+00  8.66D-01  7.32D-01  1.09D+00
                    CP:  1.19D+00  1.45D+00  1.42D+00  9.98D-01  1.01D+00
                    CP:  1.69D+00  1.87D+00  1.49D+00  1.47D+00  2.17D+00
                    CP:  1.81D+00
 E= -430.026804831798     Delta-E=       -0.000000000010 Rises=F Damp=F
 DIIS: error= 1.48D-07 at cycle  17 NSaved=  17.
 NSaved=17 IEnMin=17 EnMin= -430.026804831798     IErMin=17 ErrMin= 1.48D-07
 ErrMax= 1.48D-07  0.00D+00 EMaxC= 1.00D-01 BMatC= 3.78D-12 BMatP= 4.42D-12
 IDIUse=1 WtCom= 1.00D+00 WtEn= 0.00D+00
 Coeff-Com:  0.657D-06-0.600D-06-0.201D-06-0.630D-05-0.297D-04-0.281D-04
 Coeff-Com:  0.131D-03 0.134D-02-0.278D-03-0.594D-02-0.197D-01 0.737D-01
 Coeff-Com:  0.679D-01-0.184D+00-0.103D+01 0.410D+00 0.168D+01
 Coeff:      0.657D-06-0.600D-06-0.201D-06-0.630D-05-0.297D-04-0.281D-04
 Coeff:      0.131D-03 0.134D-02-0.278D-03-0.594D-02-0.197D-01 0.737D-01
 Coeff:      0.679D-01-0.184D+00-0.103D+01 0.410D+00 0.168D+01
 Gap=     0.249 Goal=   None    Shift=    0.000
 Gap=     0.084 Goal=   None    Shift=    0.000
 RMSDP=5.33D-08 MaxDP=1.70D-06 DE=-9.78D-12 OVMax= 1.48D-05

 Cycle  18  Pass 1  IDiag  1:
 RMSU=  1.91D-08    CP:  9.04D-01  2.90D+00  8.66D-01  7.32D-01  1.09D+00
                    CP:  1.19D+00  1.45D+00  1.42D+00  9.98D-01  1.01D+00
                    CP:  1.69D+00  1.88D+00  1.59D+00  1.62D+00  3.00D+00
                    CP:  3.00D+00  2.55D+00
 E= -430.026804831814     Delta-E=       -0.000000000016 Rises=F Damp=F
 DIIS: error= 8.39D-08 at cycle  18 NSaved=  18.
 NSaved=18 IEnMin=18 EnMin= -430.026804831814     IErMin=18 ErrMin= 8.39D-08
 ErrMax= 8.39D-08  0.00D+00 EMaxC= 1.00D-01 BMatC= 1.22D-12 BMatP= 3.78D-12
 IDIUse=1 WtCom= 1.00D+00 WtEn= 0.00D+00
 Coeff-Com: -0.927D-07 0.321D-06 0.401D-05 0.488D-05 0.384D-05-0.225D-04
 Coeff-Com: -0.119D-03 0.742D-03 0.735D-03-0.684D-03-0.142D-01 0.496D-02
 Coeff-Com:  0.465D-01 0.799D-01-0.494D+00-0.169D+00 0.402D-01 0.151D+01
 Coeff:     -0.927D-07 0.321D-06 0.401D-05 0.488D-05 0.384D-05-0.225D-04
 Coeff:     -0.119D-03 0.742D-03 0.735D-03-0.684D-03-0.142D-01 0.496D-02
 Coeff:      0.465D-01 0.799D-01-0.494D+00-0.169D+00 0.402D-01 0.151D+01
 Gap=     0.249 Goal=   None    Shift=    0.000
 Gap=     0.084 Goal=   None    Shift=    0.000
 RMSDP=4.84D-08 MaxDP=1.29D-06 DE=-1.64D-11 OVMax= 1.41D-05

 Cycle  19  Pass 1  IDiag  1:
 RMSU=  1.66D-08    CP:  9.04D-01  2.90D+00  8.66D-01  7.32D-01  1.09D+00
                    CP:  1.19D+00  1.45D+00  1.42D+00  9.98D-01  1.01D+00
                    CP:  1.69D+00  1.89D+00  1.68D+00  1.73D+00  3.00D+00
                    CP:  3.00D+00  3.00D+00  3.00D+00
 E= -430.026804831822     Delta-E=       -0.000000000008 Rises=F Damp=F
 DIIS: error= 4.02D-08 at cycle  19 NSaved=  19.
 NSaved=19 IEnMin=19 EnMin= -430.026804831822     IErMin=19 ErrMin= 4.02D-08
 ErrMax= 4.02D-08  0.00D+00 EMaxC= 1.00D-01 BMatC= 6.70D-13 BMatP= 1.22D-12
 IDIUse=1 WtCom= 1.00D+00 WtEn= 0.00D+00
 Coeff-Com: -0.358D-06 0.538D-06 0.340D-05 0.659D-05 0.145D-04-0.762D-05
 Coeff-Com: -0.148D-03 0.101D-03 0.703D-03 0.159D-02-0.404D-02-0.243D-01
 Coeff-Com:  0.166D-01 0.127D+00-0.373D-01-0.269D+00-0.673D+00 0.125D+01
 Coeff-Com:  0.611D+00
 Coeff:     -0.358D-06 0.538D-06 0.340D-05 0.659D-05 0.145D-04-0.762D-05
 Coeff:     -0.148D-03 0.101D-03 0.703D-03 0.159D-02-0.404D-02-0.243D-01
 Coeff:      0.166D-01 0.127D+00-0.373D-01-0.269D+00-0.673D+00 0.125D+01
 Coeff:      0.611D+00
 Gap=     0.249 Goal=   None    Shift=    0.000
 Gap=     0.084 Goal=   None    Shift=    0.000
 RMSDP=2.81D-08 MaxDP=9.32D-07 DE=-7.73D-12 OVMax= 7.58D-06

 Cycle  20  Pass 1  IDiag  1:
 RMSU=  2.21D-08    CP:  9.04D-01  2.90D+00  8.66D-01  7.32D-01  1.09D+00
                    CP:  1.19D+00  1.45D+00  1.42D+00  9.98D-01  1.01D+00
                    CP:  1.70D+00  1.89D+00  1.72D+00  1.81D+00  3.00D+00
                    CP:  3.00D+00  3.00D+00  3.00D+00  1.90D+00
 E= -430.026804831825     Delta-E=       -0.000000000003 Rises=F Damp=F
 DIIS: error= 4.72D-09 at cycle  20 NSaved=  20.
 NSaved=20 IEnMin=20 EnMin= -430.026804831825     IErMin=20 ErrMin= 4.72D-09
 ErrMax= 4.72D-09  0.00D+00 EMaxC= 1.00D-01 BMatC= 8.61D-15 BMatP= 6.70D-13
 IDIUse=1 WtCom= 1.00D+00 WtEn= 0.00D+00
 Coeff-Com: -0.605D-07 0.599D-07-0.366D-06-0.218D-06 0.392D-07 0.289D-05
 Coeff-Com:  0.847D-05-0.100D-03-0.847D-04 0.122D-03 0.213D-02-0.175D-02
 Coeff-Com: -0.449D-02-0.138D-01 0.754D-01 0.474D-01-0.363D-01-0.201D+00
 Coeff-Com: -0.159D-01 0.115D+01
 Coeff:     -0.605D-07 0.599D-07-0.366D-06-0.218D-06 0.392D-07 0.289D-05
 Coeff:      0.847D-05-0.100D-03-0.847D-04 0.122D-03 0.213D-02-0.175D-02
 Coeff:     -0.449D-02-0.138D-01 0.754D-01 0.474D-01-0.363D-01-0.201D+00
 Coeff:     -0.159D-01 0.115D+01
 Gap=     0.249 Goal=   None    Shift=    0.000
 Gap=     0.084 Goal=   None    Shift=    0.000
 RMSDP=3.99D-09 MaxDP=1.43D-07 DE=-2.73D-12 OVMax= 1.05D-06

 SCF Done:  E(UPBE1PBE) =  -430.026804832     A.U. after   20 cycles
            NFock= 20  Conv=0.40D-08     -V/T= 2.0030
 <Sx>= 0.0000 <Sy>= 0.0000 <Sz>= 0.5000 <S**2>= 0.7679 S= 0.5089
 <L.S>=  0.00000000000    
 KE= 4.287253174374D+02 PE=-1.695889444679D+03 EE= 4.886427636829D+02
 Annihilation of the first spin contaminant:
 S**2 before annihilation     0.7679,   after     0.7502
 Leave Link  502 at Wed Jan 29 15:36:43 2025, MaxMem=   104857600 cpu:              96.7 elap:              97.1
 (Enter /sw/cluster/pub/apps//g16/l601.exe)
 Copying SCF densities to generalized density rwf, IOpCl= 1 IROHF=0.

 **********************************************************************

            Population analysis using the SCF density.

 **********************************************************************

 Alpha  occ. eigenvalues --  -25.02470 -25.02465 -10.58592 -10.58530 -10.49391
 Alpha  occ. eigenvalues --  -10.49329 -10.46777 -10.46775  -1.51204  -1.49700
 Alpha  occ. eigenvalues --   -1.15566  -1.04057  -1.02621  -0.90285  -0.88381
 Alpha  occ. eigenvalues --   -0.81920  -0.78151  -0.77003  -0.75248  -0.72694
 Alpha  occ. eigenvalues --   -0.70975  -0.68329  -0.67682  -0.65129  -0.62534
 Alpha  occ. eigenvalues --   -0.62135  -0.60399  -0.52481  -0.50810
 Alpha virt. eigenvalues --   -0.25921  -0.24578  -0.16871  -0.14072  -0.11087
 Alpha virt. eigenvalues --   -0.09574  -0.08787  -0.08783  -0.08461  -0.08358
 Alpha virt. eigenvalues --   -0.05146  -0.04720  -0.04680  -0.04198  -0.02763
 Alpha virt. eigenvalues --   -0.01901  -0.01831  -0.00263   0.00084   0.00370
 Alpha virt. eigenvalues --    0.00781   0.00952   0.01388   0.01528   0.03233
 Alpha virt. eigenvalues --    0.04997   0.06211   0.06513   0.07470   0.07709
 Alpha virt. eigenvalues --    0.08449   0.09622   0.10147   0.11273   0.12783
 Alpha virt. eigenvalues --    0.13714   0.15163   0.15850   0.16198   0.17901
 Alpha virt. eigenvalues --    0.19033   0.20379   0.20916   0.24242   0.24630
 Alpha virt. eigenvalues --    0.26193   0.26396   0.28772   0.31052   0.31870
 Alpha virt. eigenvalues --    0.33033   0.34984   0.36076   0.36638   0.37103
 Alpha virt. eigenvalues --    0.37848   0.38501   0.39930   0.40831   0.42632
 Alpha virt. eigenvalues --    0.42731   0.48858   0.49801   0.52921   0.55200
 Alpha virt. eigenvalues --    0.57414   0.59558   0.61217   0.64544   0.65760
 Alpha virt. eigenvalues --    0.68063   0.69456   0.69706   0.72390   0.73552
 Alpha virt. eigenvalues --    0.73688   0.74561   0.80768   0.81244   0.86081
 Alpha virt. eigenvalues --    0.86773   0.86948   0.90843   0.96165   1.09716
 Alpha virt. eigenvalues --    1.10805   1.21399   1.22154   1.23152   1.26243
 Alpha virt. eigenvalues --    1.28750   1.29074   1.31826   1.34895   1.34970
 Alpha virt. eigenvalues --    1.34998   1.37519   1.37611   1.43434   1.43480
 Alpha virt. eigenvalues --    1.47314   1.49848   1.52143   1.58381   1.63171
 Alpha virt. eigenvalues --    1.65790   1.67587   1.67769   1.69420   1.73700
 Alpha virt. eigenvalues --    1.74793   1.79596   1.82126   1.82243   1.82531
 Alpha virt. eigenvalues --    1.91171   1.93695   2.02485   2.04128   2.08484
 Alpha virt. eigenvalues --    2.11379   2.22440   2.26247   2.34804   2.38300
 Alpha virt. eigenvalues --    2.38899   2.50534   2.52499   2.52932   2.54982
 Alpha virt. eigenvalues --    2.56275   2.56507   2.57987   2.61128   2.63465
 Alpha virt. eigenvalues --    2.66911   2.67261   2.85031   2.91093   2.92624
 Alpha virt. eigenvalues --    3.00096   3.12283   3.16646   3.28807   3.32323
 Alpha virt. eigenvalues --    3.50374   3.54353   3.56451   3.57926   3.64544
 Alpha virt. eigenvalues --    3.67863   3.75288   3.80999   3.83253   3.84632
 Alpha virt. eigenvalues --    3.88670   3.93040   4.00842   4.59548   4.63116
 Alpha virt. eigenvalues --    4.74944   6.11121   6.16726   6.22681   6.32169
 Alpha virt. eigenvalues --    6.49423   6.67393  23.36055  23.76480  23.78539
 Alpha virt. eigenvalues --   23.91220  23.96465  24.05594  66.69836  66.74756
  Beta  occ. eigenvalues --  -25.02163 -25.02158 -10.58111 -10.58054 -10.48979
  Beta  occ. eigenvalues --  -10.48921 -10.46954 -10.46953  -1.50514  -1.49038
  Beta  occ. eigenvalues --   -1.14433  -1.02435  -1.02051  -0.89749  -0.87617
  Beta  occ. eigenvalues --   -0.81543  -0.77793  -0.76724  -0.72519  -0.72277
  Beta  occ. eigenvalues --   -0.68853  -0.68273  -0.67426  -0.64829  -0.61895
  Beta  occ. eigenvalues --   -0.60073  -0.59311  -0.50299
  Beta virt. eigenvalues --   -0.41877  -0.23148  -0.21709  -0.16271  -0.13919
  Beta virt. eigenvalues --   -0.11067  -0.09482  -0.08506  -0.08192  -0.08190
  Beta virt. eigenvalues --   -0.06568  -0.04950  -0.04414  -0.04236  -0.04134
  Beta virt. eigenvalues --   -0.02629  -0.01717  -0.01559  -0.00054   0.00423
  Beta virt. eigenvalues --    0.00457   0.00885   0.01260   0.01486   0.01778
  Beta virt. eigenvalues --    0.03308   0.05240   0.06393   0.06594   0.07717
  Beta virt. eigenvalues --    0.07830   0.08887   0.10132   0.10252   0.11511
  Beta virt. eigenvalues --    0.13189   0.14030   0.15340   0.16130   0.16231
  Beta virt. eigenvalues --    0.18017   0.19125   0.20567   0.21004   0.24333
  Beta virt. eigenvalues --    0.24792   0.26299   0.26558   0.28958   0.32028
  Beta virt. eigenvalues --    0.32253   0.33547   0.35085   0.36318   0.37646
  Beta virt. eigenvalues --    0.38343   0.38445   0.38616   0.40045   0.40988
  Beta virt. eigenvalues --    0.42856   0.44208   0.49182   0.50659   0.53375
  Beta virt. eigenvalues --    0.55314   0.57818   0.60485   0.61298   0.64759
  Beta virt. eigenvalues --    0.66078   0.68239   0.69861   0.69901   0.72733
  Beta virt. eigenvalues --    0.74272   0.75278   0.75485   0.81080   0.81763
  Beta virt. eigenvalues --    0.86317   0.87007   0.88447   0.92831   0.96922
  Beta virt. eigenvalues --    1.10297   1.11735   1.22263   1.22368   1.23369
  Beta virt. eigenvalues --    1.26956   1.28850   1.29732   1.31866   1.35334
  Beta virt. eigenvalues --    1.35474   1.35845   1.37735   1.37985   1.43805
  Beta virt. eigenvalues --    1.44471   1.48181   1.50565   1.52722   1.58550
  Beta virt. eigenvalues --    1.63304   1.67585   1.68365   1.68524   1.70082
  Beta virt. eigenvalues --    1.74388   1.74913   1.79870   1.82423   1.82677
  Beta virt. eigenvalues --    1.82819   1.92061   1.94412   2.03420   2.04359
  Beta virt. eigenvalues --    2.09708   2.11526   2.22493   2.26626   2.34991
  Beta virt. eigenvalues --    2.38739   2.40765   2.50650   2.52985   2.54513
  Beta virt. eigenvalues --    2.54995   2.56689   2.57011   2.58118   2.61315
  Beta virt. eigenvalues --    2.65877   2.66952   2.67479   2.86509   2.91418
  Beta virt. eigenvalues --    2.93080   3.00392   3.12814   3.16764   3.29259
  Beta virt. eigenvalues --    3.32608   3.50753   3.54824   3.57310   3.58799
  Beta virt. eigenvalues --    3.65446   3.68442   3.76240   3.81963   3.84020
  Beta virt. eigenvalues --    3.84757   3.89090   3.93583   4.01075   4.59925
  Beta virt. eigenvalues --    4.64060   4.75337   6.12343   6.17940   6.22901
  Beta virt. eigenvalues --    6.32388   6.49673   6.67670  23.36372  23.76923
  Beta virt. eigenvalues --   23.78818  23.91567  23.96471  24.05748  66.70097
  Beta virt. eigenvalues --   66.75016
          Condensed to atoms (all electrons):
               1          2          3          4          5          6
     1  C    7.347922  -1.449781   0.808423  -1.081930   1.839178  -1.566413
     2  C   -1.449781   9.923241  -0.547908  -1.824368  -2.319523   1.839331
     3  C    0.808423  -0.547908  10.138409  -1.654594  -1.824847  -1.081710
     4  C   -1.081930  -1.824368  -1.654594  10.137960  -0.548004   0.808526
     5  C    1.839178  -2.319523  -1.824847  -0.548004   9.925127  -1.450724
     6  C   -1.566413   1.839331  -1.081710   0.808526  -1.450724   7.348818
     7  H    0.443830  -0.130823   0.065642   0.004582   0.055681  -0.124301
     8  H   -0.056816   0.536059  -0.138363  -0.055229  -0.034623   0.061210
     9  H    0.061192  -0.034603  -0.055247  -0.138366   0.536084  -0.056810
    10  H   -0.124255   0.055680   0.004576   0.065654  -0.130870   0.443853
    11  F    0.051828  -0.308449   0.731648  -0.322877  -0.002871  -0.046508
    12  F   -0.046534  -0.002822  -0.322772   0.731663  -0.308600   0.051849
               7          8          9         10         11         12
     1  C    0.443830  -0.056816   0.061192  -0.124255   0.051828  -0.046534
     2  C   -0.130823   0.536059  -0.034603   0.055680  -0.308449  -0.002822
     3  C    0.065642  -0.138363  -0.055247   0.004576   0.731648  -0.322772
     4  C    0.004582  -0.055229  -0.138366   0.065654  -0.322877   0.731663
     5  C    0.055681  -0.034623   0.536084  -0.130870  -0.002871  -0.308600
     6  C   -0.124301   0.061210  -0.056810   0.443853  -0.046508   0.051849
     7  H    0.382304  -0.006417   0.002055  -0.004545   0.002318  -0.000449
     8  H   -0.006417   0.394615  -0.000418   0.002055  -0.026444   0.000453
     9  H    0.002055  -0.000418   0.394619  -0.006415   0.000452  -0.026456
    10  H   -0.004545   0.002055  -0.006415   0.382287  -0.000449   0.002319
    11  F    0.002318  -0.026444   0.000452  -0.000449   8.957555   0.011848
    12  F   -0.000449   0.000453  -0.026456   0.002319   0.011848   8.957428
          Atomic-Atomic Spin Densities.
               1          2          3          4          5          6
     1  C    0.248307   0.033266  -0.034087   0.007611  -0.045316   0.090402
     2  C    0.033266  -0.228000   0.059030  -0.003280   0.026505  -0.045299
     3  C   -0.034087   0.059030   0.242274   0.079975  -0.003215   0.007584
     4  C    0.007611  -0.003280   0.079975   0.242764   0.059241  -0.034142
     5  C   -0.045316   0.026505  -0.003215   0.059241  -0.227881   0.033182
     6  C    0.090402  -0.045299   0.007584  -0.034142   0.033182   0.247583
     7  H   -0.008013   0.007740  -0.003978  -0.000045   0.000432   0.004543
     8  H    0.000912  -0.006428   0.006206   0.001263  -0.001867   0.000665
     9  H    0.000655  -0.001859   0.001256   0.006225  -0.006455   0.000928
    10  H    0.004542   0.000429  -0.000045  -0.003984   0.007744  -0.007999
    11  F    0.002047  -0.001135  -0.045751  -0.004886   0.003016  -0.002181
    12  F   -0.002173   0.003006  -0.004862  -0.045852  -0.001133   0.002037
               7          8          9         10         11         12
     1  C   -0.008013   0.000912   0.000655   0.004542   0.002047  -0.002173
     2  C    0.007740  -0.006428  -0.001859   0.000429  -0.001135   0.003006
     3  C   -0.003978   0.006206   0.001256  -0.000045  -0.045751  -0.004862
     4  C   -0.000045   0.001263   0.006225  -0.003984  -0.004886  -0.045852
     5  C    0.000432  -0.001867  -0.006455   0.007744   0.003016  -0.001133
     6  C    0.004543   0.000665   0.000928  -0.007999  -0.002181   0.002037
     7  H   -0.019075   0.000735   0.000165  -0.000060   0.000096  -0.000033
     8  H    0.000735   0.002832  -0.000103   0.000165  -0.000366   0.000134
     9  H    0.000165  -0.000103   0.002819   0.000735   0.000134  -0.000367
    10  H   -0.000060   0.000165   0.000735  -0.019035  -0.000033   0.000096
    11  F    0.000096  -0.000366   0.000134  -0.000033   0.113772   0.002079
    12  F   -0.000033   0.000134  -0.000367   0.000096   0.002079   0.113972
 Mulliken charges and spin densities:
               1          2
     1  C   -0.226646   0.298154
     2  C    0.263965  -0.156024
     3  C   -0.123256   0.304388
     4  C   -0.123017   0.304889
     5  C    0.263992  -0.155748
     6  C   -0.227121   0.297301
     7  H    0.310123  -0.017492
     8  H    0.323917   0.004147
     9  H    0.323914   0.004134
    10  H    0.310109  -0.017446
    11  F   -0.048052   0.066793
    12  F   -0.047927   0.066904
 Sum of Mulliken charges =   1.00000   1.00000
 Mulliken charges and spin densities with hydrogens summed into heavy atoms:
               1          2
     1  C    0.083477   0.280661
     2  C    0.587882  -0.151876
     3  C   -0.123256   0.304388
     4  C   -0.123017   0.304889
     5  C    0.587906  -0.151614
     6  C    0.082987   0.279855
    11  F   -0.048052   0.066793
    12  F   -0.047927   0.066904
 Electronic spatial extent (au):  <R**2>=            887.3911
 Charge=              1.0000 electrons
 Dipole moment (field-independent basis, Debye):
    X=              0.9191    Y=              1.5925    Z=             -0.0000  Tot=              1.8387
 Quadrupole moment (field-independent basis, Debye-Ang):
   XX=            -30.6025   YY=            -32.0653   ZZ=            -42.5595
   XY=             -1.2625   XZ=              0.0000   YZ=              0.0000
 Traceless Quadrupole moment (field-independent basis, Debye-Ang):
   XX=              4.4733   YY=              3.0105   ZZ=             -7.4837
   XY=             -1.2625   XZ=              0.0000   YZ=              0.0000
 Octapole moment (field-independent basis, Debye-Ang**2):
  XXX=             38.3144  YYY=             66.9127  ZZZ=             -0.0000  XYY=             13.1891
  XXY=             22.3014  XXZ=             -0.0000  XZZ=              8.9617  YZZ=             15.5232
  YYZ=             -0.0000  XYZ=              0.0000
 Hexadecapole moment (field-independent basis, Debye-Ang**3):
 XXXX=           -361.1175 YYYY=           -474.0730 ZZZZ=            -39.8520 XXXY=            -53.7399
 XXXZ=              0.0000 YYYX=            -44.0220 YYYZ=             -0.0000 ZZZX=              0.0000
 ZZZY=             -0.0000 XXYY=           -135.4571 XXZZ=            -77.8868 YYZZ=            -91.1985
 XXYZ=              0.0000 YYXZ=              0.0000 ZZXY=            -11.5188
 N-N= 3.484945587271D+02 E-N=-1.695889444581D+03  KE= 4.287253174374D+02
                          Isotropic Fermi Contact Couplings
        Atom                 a.u.       MegaHertz       Gauss      10(-4) cm-1
     1  C(13)              0.00857       9.63445       3.43781       3.21371
     2  C(13)             -0.02003     -22.51273      -8.03310      -7.50944
     3  C(13)              0.00847       9.52199       3.39768       3.17620
     4  C(13)              0.00850       9.56094       3.41158       3.18918
     5  C(13)             -0.02001     -22.49500      -8.02677      -7.50352
     6  C(13)              0.00851       9.57039       3.41495       3.19234
     7  H(1)              -0.00442     -19.74584      -7.04581      -6.58650
     8  H(1)               0.00110       4.93439       1.76071       1.64593
     9  H(1)               0.00110       4.92059       1.75579       1.64133
    10  H(1)              -0.00441     -19.70070      -7.02970      -6.57145
    11  F(19)              0.01483      62.38577      22.26079      20.80965
    12  F(19)              0.01485      62.49426      22.29951      20.84584
 --------------------------------------------------------
       Center         ----  Spin Dipole Couplings  ----
                      3XX-RR        3YY-RR        3ZZ-RR
 --------------------------------------------------------
     1   Atom       -0.153235     -0.163296      0.316531
     2   Atom        0.055016      0.056073     -0.111088
     3   Atom       -0.192370     -0.187101      0.379472
     4   Atom       -0.181875     -0.198238      0.380113
     5   Atom        0.053121      0.057749     -0.110871
     6   Atom       -0.160031     -0.155721      0.315752
     7   Atom        0.020955     -0.015782     -0.005173
     8   Atom        0.003664      0.002295     -0.005959
     9   Atom       -0.000054      0.006014     -0.005961
    10   Atom       -0.021208      0.026382     -0.005174
    11   Atom       -0.312368     -0.332749      0.645117
    12   Atom       -0.327462     -0.318701      0.646163
 --------------------------------------------------------
                        XY            XZ            YZ
 --------------------------------------------------------
     1   Atom       -0.000406      0.000000      0.000000
     2   Atom        0.002964      0.000000      0.000000
     3   Atom       -0.007945     -0.000000     -0.000000
     4   Atom       -0.001687      0.000000      0.000000
     5   Atom        0.001932     -0.000000     -0.000000
     6   Atom       -0.004568     -0.000000     -0.000000
     7   Atom        0.016926     -0.000000      0.000000
     8   Atom        0.003089      0.000000     -0.000000
     9   Atom        0.000926      0.000000     -0.000000
    10   Atom       -0.007456     -0.000000      0.000000
    11   Atom       -0.000844     -0.000000     -0.000000
    12   Atom       -0.009257      0.000000      0.000000
 --------------------------------------------------------


 ---------------------------------------------------------------------------------
              Anisotropic Spin Dipole Couplings in Principal Axis System
 ---------------------------------------------------------------------------------

       Atom             a.u.   MegaHertz   Gauss  10(-4) cm-1        Axes

              Baa    -0.1633   -21.915    -7.820    -7.310  0.0402  0.9992 -0.0000
     1 C(13)  Bbb    -0.1532   -20.560    -7.336    -6.858  0.9992 -0.0402 -0.0000
              Bcc     0.3165    42.475    15.156    14.168  0.0000  0.0000  1.0000
 
              Baa    -0.1111   -14.907    -5.319    -4.972 -0.0000 -0.0000  1.0000
     2 C(13)  Bbb     0.0525     7.049     2.515     2.351  0.7667 -0.6421 -0.0000
              Bcc     0.0586     7.858     2.804     2.621  0.6421  0.7667  0.0000
 
              Baa    -0.1981   -26.584    -9.486    -8.867  0.8108  0.5853  0.0000
     3 C(13)  Bbb    -0.1814   -24.337    -8.684    -8.118 -0.5853  0.8108  0.0000
              Bcc     0.3795    50.921    18.170    16.986 -0.0000 -0.0000  1.0000
 
              Baa    -0.1984   -26.625    -9.500    -8.881  0.1015  0.9948 -0.0000
     4 C(13)  Bbb    -0.1817   -24.383    -8.700    -8.133  0.9948 -0.1015 -0.0000
              Bcc     0.3801    51.007    18.201    17.014  0.0000  0.0000  1.0000
 
              Baa    -0.1109   -14.878    -5.309    -4.963  0.0000  0.0000  1.0000
     5 C(13)  Bbb     0.0524     7.034     2.510     2.346  0.9401 -0.3409 -0.0000
              Bcc     0.0585     7.843     2.799     2.616  0.3409  0.9401 -0.0000
 
              Baa    -0.1629   -21.863    -7.801    -7.293  0.8446  0.5354  0.0000
     6 C(13)  Bbb    -0.1528   -20.508    -7.318    -6.841 -0.5354  0.8446  0.0000
              Bcc     0.3158    42.371    15.119    14.133 -0.0000 -0.0000  1.0000
 
              Baa    -0.0224   -11.947    -4.263    -3.985 -0.3637  0.9315 -0.0000
     7 H(1)   Bbb    -0.0052    -2.760    -0.985    -0.921  0.0000  0.0000  1.0000
              Bcc     0.0276    14.707     5.248     4.906  0.9315  0.3637 -0.0000
 
              Baa    -0.0060    -3.179    -1.135    -1.061 -0.0000  0.0000  1.0000
     8 H(1)   Bbb    -0.0002    -0.099    -0.035    -0.033 -0.6259  0.7799 -0.0000
              Bcc     0.0061     3.278     1.170     1.093  0.7799  0.6259  0.0000
 
              Baa    -0.0060    -3.180    -1.135    -1.061 -0.0000  0.0000  1.0000
     9 H(1)   Bbb    -0.0002    -0.102    -0.036    -0.034  0.9891 -0.1476  0.0000
              Bcc     0.0062     3.283     1.171     1.095  0.1476  0.9891 -0.0000
 
              Baa    -0.0223   -11.924    -4.255    -3.977  0.9885  0.1512 -0.0000
    10 H(1)   Bbb    -0.0052    -2.761    -0.985    -0.921  0.0000 -0.0000  1.0000
              Bcc     0.0275    14.685     5.240     4.898 -0.1512  0.9885  0.0000
 
              Baa    -0.3328  -167.132   -59.637   -55.749  0.0413  0.9991  0.0000
    11 F(19)  Bbb    -0.3123  -156.862   -55.972   -52.323  0.9991 -0.0413  0.0000
              Bcc     0.6451   323.994   115.609   108.073 -0.0000 -0.0000  1.0000
 
              Baa    -0.3333  -167.403   -59.734   -55.840  0.8449  0.5349 -0.0000
    12 F(19)  Bbb    -0.3128  -157.116   -56.063   -52.408 -0.5349  0.8449  0.0000
              Bcc     0.6462   324.520   115.797   108.248  0.0000  0.0000  1.0000
 

 ---------------------------------------------------------------------------------

 No NMR shielding tensors so no spin-rotation constants.
 Leave Link  601 at Wed Jan 29 15:36:43 2025, MaxMem=   104857600 cpu:               0.1 elap:               0.1
 (Enter /sw/cluster/pub/apps//g16/l701.exe)
 ... and contract with generalized density number  0.
 Compute integral first derivatives.
 Leave Link  701 at Wed Jan 29 15:36:43 2025, MaxMem=   104857600 cpu:               0.1 elap:               0.1
 (Enter /sw/cluster/pub/apps//g16/l702.exe)
 L702 exits ... SP integral derivatives will be done elsewhere.
 Leave Link  702 at Wed Jan 29 15:36:43 2025, MaxMem=   104857600 cpu:               0.0 elap:               0.0
 (Enter /sw/cluster/pub/apps//g16/l703.exe)
 Integral derivatives from FoFJK, PRISM(SPDF).
 Compute integral first derivatives, UseDBF=F ICtDFT=           0.
 Calling FoFJK, ICntrl=      2127 FMM=F ISym2X=0 I1Cent= 0 IOpClX= 1 NMat=1 NMatS=1 NMatT=0.
 FoFJK:  IHMeth= 1 ICntrl=    2127 DoSepK=F KAlg= 0 I1Cent=           0 FoldK=F
 IRaf=         0 NMat=       1 IRICut=       1 DoRegI=T DoRafI=F ISym2E= 0 IDoP0=0 IntGTp=1.
 FoFCou: FMM=F IPFlag=           0 FMFlag=      100000 FMFlg1=         800
         NFxFlg=           0 DoJE=F BraDBF=F KetDBF=F FulRan=T
         wScrn=  0.000000 ICntrl=      2127 IOpCl=  1 I1Cent=           0 NGrid=           0
         NMat0=    1 NMatS0=      1 NMatT0=    0 NMatD0=    1 NMtDS0=    0 NMtDT0=    0
 Symmetry not used in FoFCou.
 Leave Link  703 at Wed Jan 29 15:36:57 2025, MaxMem=   104857600 cpu:              13.7 elap:              13.7
 (Enter /sw/cluster/pub/apps//g16/l716.exe)
 Dipole        = 3.61616830D-01 6.26549316D-01-1.70652666D-10
 -------------------------------------------------------------------
 Center     Atomic                   Forces (Hartrees/Bohr)
 Number     Number              X              Y              Z
 -------------------------------------------------------------------
      1        6           0.029533700   -0.030791625    0.000000000
      2        6           0.011022588    0.004032859   -0.000000000
      3        6           0.040036934   -0.057576392    0.000000000
      4        6          -0.069894716    0.005843744    0.000000000
      5        6          -0.001997728    0.011632178   -0.000000000
      6        6          -0.041464987    0.010150021   -0.000000000
      7        1           0.000945337   -0.000059908   -0.000000000
      8        1           0.000134175   -0.000152074    0.000000000
      9        1          -0.000199251    0.000056353    0.000000000
     10        1          -0.000511991    0.000790902    0.000000000
     11        9          -0.001991702    0.038557296    0.000000000
     12        9           0.034387642    0.017516647   -0.000000000
 -------------------------------------------------------------------
 Cartesian Forces:  Max     0.069894716 RMS     0.021563249
 Leave Link  716 at Wed Jan 29 15:36:57 2025, MaxMem=   104857600 cpu:               0.0 elap:               0.0
 (Enter /sw/cluster/pub/apps//g16/l103.exe)

 GradGradGradGradGradGradGradGradGradGradGradGradGradGradGradGradGradGrad
 Berny optimization.
 FormGI is forming the generalized inverse of G from B-inverse, IUseBI=4.
 Internal  Forces:  Max     0.047276942 RMS     0.011966249
 Search for a local minimum.
 Step number   1 out of a maximum of   64
 All quantities printed in internal units (Hartrees-Bohrs-Radians)
 RMS Force = .11966D-01 SwitMx=.10000D-02 MixMth= 1
 Mixed Optimization -- RFO/linear search
 Second derivative matrix not updated -- first step.
 ITU=  0
     Eigenvalues ---    0.02217   0.02220   0.02221   0.02259   0.02260
     Eigenvalues ---    0.02268   0.02284   0.02290   0.02304   0.16000
     Eigenvalues ---    0.16000   0.16000   0.16000   0.22000   0.22498
     Eigenvalues ---    0.24492   0.25000   0.25000   0.35501   0.35502
     Eigenvalues ---    0.35505   0.35506   0.43252   0.43371   0.47260
     Eigenvalues ---    0.47542   0.48069   0.48539   0.58213   0.58221
 RFO step:  Lambda=-1.54781162D-02 EMin= 2.21688960D-02
 Linear search not attempted -- first point.
 Iteration  1 RMS(Cart)=  0.03110650 RMS(Int)=  0.00021829
 Iteration  2 RMS(Cart)=  0.00033437 RMS(Int)=  0.00003149
 Iteration  3 RMS(Cart)=  0.00000009 RMS(Int)=  0.00003149
 ITry= 1 IFail=0 DXMaxC= 7.49D-02 DCOld= 1.00D+10 DXMaxT= 3.00D-01 DXLimC= 3.00D+00 Rises=F
 Variable       Old X    -DE/DX   Delta X   Delta X   Delta X     New X
                                 (Linear)    (Quad)   (Total)
    R1        2.62783  -0.00847   0.00000  -0.01792  -0.01789   2.60994
    R2        2.62638   0.04472   0.00000   0.09037   0.09042   2.71680
    R3        2.04868   0.00079   0.00000   0.00213   0.00213   2.05082
    R4        2.61185   0.00025   0.00000   0.00103   0.00100   2.61285
    R5        2.04863   0.00019   0.00000   0.00052   0.00052   2.04915
    R6        2.62275   0.04728   0.00000   0.09712   0.09706   2.71981
    R7        2.52383  -0.03852   0.00000  -0.06446  -0.06446   2.45937
    R8        2.61187   0.00032   0.00000   0.00118   0.00115   2.61302
    R9        2.52376  -0.03851   0.00000  -0.06442  -0.06442   2.45934
   R10        2.62770  -0.00848   0.00000  -0.01794  -0.01791   2.60980
   R11        2.04861   0.00020   0.00000   0.00055   0.00055   2.04916
   R12        2.04867   0.00079   0.00000   0.00214   0.00214   2.05081
    A1        2.09828   0.00553   0.00000   0.02069   0.02078   2.11905
    A2        2.08632  -0.00330   0.00000  -0.01339  -0.01343   2.07289
    A3        2.09858  -0.00223   0.00000  -0.00730  -0.00734   2.09124
    A4        2.08244  -0.00859   0.00000  -0.03586  -0.03586   2.04659
    A5        2.12739   0.00436   0.00000   0.01827   0.01827   2.14566
    A6        2.07335   0.00424   0.00000   0.01758   0.01758   2.09093
    A7        2.10244   0.00308   0.00000   0.01519   0.01511   2.11755
    A8        2.10075   0.00168   0.00000   0.00452   0.00457   2.10532
    A9        2.07999  -0.00476   0.00000  -0.01972  -0.01968   2.06032
   A10        2.10265   0.00305   0.00000   0.01510   0.01502   2.11766
   A11        2.08008  -0.00477   0.00000  -0.01978  -0.01974   2.06034
   A12        2.10046   0.00172   0.00000   0.00468   0.00472   2.10518
   A13        2.08247  -0.00861   0.00000  -0.03589  -0.03589   2.04658
   A14        2.07315   0.00426   0.00000   0.01768   0.01768   2.09084
   A15        2.12757   0.00435   0.00000   0.01821   0.01821   2.14577
   A16        2.09809   0.00555   0.00000   0.02076   0.02084   2.11894
   A17        2.09874  -0.00225   0.00000  -0.00741  -0.00745   2.09129
   A18        2.08635  -0.00329   0.00000  -0.01335  -0.01339   2.07296
    D1        0.00000  -0.00000   0.00000  -0.00000  -0.00000   0.00000
    D2        3.14159   0.00000   0.00000   0.00000   0.00000   3.14159
    D3        3.14159  -0.00000   0.00000  -0.00000   0.00000   3.14159
    D4       -0.00000   0.00000   0.00000   0.00000   0.00000   0.00000
    D5       -0.00000   0.00000   0.00000   0.00000   0.00000   0.00000
    D6        3.14159   0.00000   0.00000   0.00000   0.00000   3.14159
    D7        3.14159  -0.00000   0.00000  -0.00000   0.00000   3.14159
    D8        0.00000  -0.00000   0.00000  -0.00000  -0.00000   0.00000
    D9       -0.00000   0.00000   0.00000   0.00000   0.00000   0.00000
   D10        3.14159   0.00000   0.00000   0.00000   0.00000   3.14159
   D11        3.14159  -0.00000   0.00000  -0.00000   0.00000   3.14159
   D12        0.00000  -0.00000   0.00000  -0.00000  -0.00000   0.00000
   D13        0.00000  -0.00000   0.00000  -0.00000   0.00000   0.00000
   D14        3.14159  -0.00000   0.00000  -0.00000   0.00000   3.14159
   D15        3.14159  -0.00000   0.00000  -0.00000   0.00000   3.14159
   D16        0.00000  -0.00000   0.00000  -0.00000  -0.00000   0.00000
   D17        0.00000  -0.00000   0.00000  -0.00000  -0.00000   0.00000
   D18        3.14159  -0.00000   0.00000  -0.00000   0.00000   3.14159
   D19        3.14159   0.00000   0.00000   0.00000   0.00000   3.14159
   D20       -0.00000   0.00000   0.00000   0.00000   0.00000   0.00000
   D21        0.00000  -0.00000   0.00000   0.00000  -0.00000   0.00000
   D22        3.14159   0.00000   0.00000   0.00000   0.00000   3.14159
   D23        3.14159  -0.00000   0.00000  -0.00000   0.00000   3.14159
   D24        0.00000  -0.00000   0.00000   0.00000   0.00000   0.00000
         Item               Value     Threshold  Converged?
 Maximum Force            0.047277     0.000450     NO 
 RMS     Force            0.011966     0.000300     NO 
 Maximum Displacement     0.074854     0.001800     NO 
 RMS     Displacement     0.031118     0.001200     NO 
 Predicted change in Energy=-7.995143D-03
 Lowest energy point so far.  Saving SCF results.
 GradGradGradGradGradGradGradGradGradGradGradGradGradGradGradGradGradGrad

 Leave Link  103 at Wed Jan 29 15:36:57 2025, MaxMem=   104857600 cpu:               0.0 elap:               0.0
 (Enter /sw/cluster/pub/apps//g16/l202.exe)
                          Input orientation:                          
 ---------------------------------------------------------------------
 Center     Atomic      Atomic             Coordinates (Angstroms)
 Number     Number       Type             X           Y           Z
 ---------------------------------------------------------------------
      1          6           0        1.210476    0.659016    0.000000
      2          6           0        1.244474   -0.721688   -0.000000
      3          6           0        0.031350   -1.385068   -0.000000
      4          6           0       -1.215061   -0.665394    0.000000
      5          6           0       -1.247185    0.716984    0.000000
      6          6           0       -0.034553    1.377899   -0.000000
      7          1           0        2.148631    1.204566   -0.000000
      8          1           0        2.168782   -1.288701   -0.000000
      9          1           0       -2.200463    1.233815   -0.000000
     10          1           0       -0.031136    2.463134    0.000000
     11          9           0       -0.013035   -2.685752    0.000000
     12          9           0       -2.319346   -1.354060   -0.000000
 ---------------------------------------------------------------------
                    Distance matrix (angstroms):
                    1          2          3          4          5
     1  C    0.000000
     2  C    1.381122   0.000000
     3  C    2.359792   1.382659   0.000000
     4  C    2.763564   2.460180   1.439260   0.000000
     5  C    2.458344   2.877176   2.460340   1.382751   0.000000
     6  C    1.437668   2.458491   2.763753   2.359798   1.381045
     7  H    1.085247   2.127899   3.345009   3.848529   3.430641
     8  H    2.170703   1.084365   2.139604   3.440771   3.961262
     9  H    3.459031   3.961261   3.440863   2.139629   1.084368
    10  H    2.190078   3.430784   3.848710   3.345051   2.127867
    11  F    3.561523   2.332140   1.301441   2.350896   3.619632
    12  F    4.063510   3.619490   2.350900   1.301425   2.332114
                    6          7          8          9         10
     6  C    0.000000
     7  H    2.190054   0.000000
     8  H    3.459109   2.493349   0.000000
     9  H    2.170697   4.349192   5.045135   0.000000
    10  H    1.085241   2.517017   4.349242   2.493433   0.000000
    11  F    4.063707   4.450548   2.590768   4.488635   5.148918
    12  F    3.561443   5.148727   4.488604   2.590605   4.450492
                   11         12
    11  F    0.000000
    12  F    2.663170   0.000000
 Symmetry turned off by external request.
 Stoichiometry    C6H4F2(1+,2)
 Framework group  CS[SG(C6H4F2)]
 Deg. of freedom    21
 Full point group                 CS      NOp   2
 Rotational constants (GHZ):           3.2008177           2.3003645           1.3384482
 Leave Link  202 at Wed Jan 29 15:36:57 2025, MaxMem=   104857600 cpu:               0.0 elap:               0.0
 (Enter /sw/cluster/pub/apps//g16/l301.exe)
 Standard basis: 6-311++G(d,p) (5D, 7F)
 Ernie: Thresh=  0.10000D-02 Tol=  0.10000D-05 Strict=F.
   204 basis functions,   324 primitive gaussians,   212 cartesian basis functions
    29 alpha electrons       28 beta electrons
       nuclear repulsion energy       348.8338064542 Hartrees.
 IExCor= 1009 DFT=T Ex+Corr=PBE1PBE ExCW=0 ScaHFX=  0.250000
 ScaDFX=  0.750000  0.750000  1.000000  1.000000 ScalE2=  1.000000  1.000000
 IRadAn=      5 IRanWt=     -1 IRanGd=            0 ICorTp=0 IEmpDi=  4
 NAtoms=   12 NActive=   12 NUniq=   12 SFac= 1.00D+00 NAtFMM=   60 NAOKFM=F Big=F
 Integral buffers will be    131072 words long.
 Raffenetti 2 integral format.
 Two-electron integral symmetry is turned off.
 Leave Link  301 at Wed Jan 29 15:36:57 2025, MaxMem=   104857600 cpu:               0.0 elap:               0.0
 (Enter /sw/cluster/pub/apps//g16/l302.exe)
 NPDir=0 NMtPBC=     1 NCelOv=     1 NCel=       1 NClECP=     1 NCelD=      1
         NCelK=      1 NCelE2=     1 NClLst=     1 CellRange=     0.0.
 One-electron integrals computed using PRISM.
 NBasis=   204 RedAO= T EigKep=  1.84D-06  NBF=   204
 NBsUse=   204 1.00D-06 EigRej= -1.00D+00 NBFU=   204
 Precomputing XC quadrature grid using
 IXCGrd= 4 IRadAn=           5 IRanWt=          -1 IRanGd=           0 AccXCQ= 0.00D+00.
 Generated NRdTot=       0 NPtTot=           0 NUsed=           0 NTot=          32
 NSgBfM=   212   212   212   212   212 MxSgAt=    12 MxSgA2=    12.
 Leave Link  302 at Wed Jan 29 15:36:57 2025, MaxMem=   104857600 cpu:               0.2 elap:               0.2
 (Enter /sw/cluster/pub/apps//g16/l303.exe)
 DipDrv:  MaxL=1.
 Leave Link  303 at Wed Jan 29 15:36:57 2025, MaxMem=   104857600 cpu:               0.0 elap:               0.0
 (Enter /sw/cluster/pub/apps//g16/l401.exe)
 Initial guess from the checkpoint file:  "1-2-DFB-CAT.chk"
 B after Tr=     0.005159    0.008955   -0.000000
         Rot=    1.000000    0.000000    0.000000   -0.000010 Ang=  -0.00 deg.
 Guess basis will be translated and rotated to current coordinates.
 JPrj=2 DoOrth=T DoCkMO=T.
 Initial guess <Sx>= 0.0000 <Sy>= 0.0000 <Sz>= 0.5000 <S**2>= 0.7679 S= 0.5089
 Generating alternative initial guess.
 ExpMin= 3.60D-02 ExpMax= 1.14D+04 ExpMxC= 1.72D+03 IAcc=3 IRadAn=         5 AccDes= 0.00D+00
 Harris functional with IExCor= 1009 and IRadAn=       5 diagonalized for initial guess.
 HarFok:  IExCor= 1009 AccDes= 0.00D+00 IRadAn=         5 IDoV= 1 UseB2=F ITyADJ=14
 ICtDFT=  3500011 ScaDFX=  1.000000  1.000000  1.000000  1.000000
 FoFCou: FMM=F IPFlag=           0 FMFlag=      100000 FMFlg1=           0
         NFxFlg=           0 DoJE=T BraDBF=F KetDBF=T FulRan=T
         wScrn=  0.000000 ICntrl=       500 IOpCl=  0 I1Cent=   200000004 NGrid=           0
         NMat0=    1 NMatS0=      1 NMatT0=    0 NMatD0=    1 NMtDS0=    0 NMtDT0=    0
 Symmetry not used in FoFCou.
 Harris En= -430.134407027889    
 Leave Link  401 at Wed Jan 29 15:36:59 2025, MaxMem=   104857600 cpu:               1.6 elap:               1.6
 (Enter /sw/cluster/pub/apps//g16/l502.exe)
 Two-electron integral symmetry not used.
 UHF open shell SCF:
 Using DIIS extrapolation, IDIIS=  1040.
 NGot=   104857600 LenX=   104764860 LenY=   104719475
 Requested convergence on RMS density matrix=1.00D-08 within 128 cycles.
 Requested convergence on MAX density matrix=1.00D-06.
 Requested convergence on             energy=1.00D-06.
 No special actions if energy rises.
 Fock matrices will be formed incrementally for  20 cycles.

 Cycle   1  Pass 1  IDiag  1:
 FoFJK:  IHMeth= 1 ICntrl=       0 DoSepK=F KAlg= 0 I1Cent=           0 FoldK=F
 IRaf= 970000000 NMat=       1 IRICut=       1 DoRegI=T DoRafI=F ISym2E= 0 IDoP0=0 IntGTp=1.
 FoFCou: FMM=F IPFlag=           0 FMFlag=      100000 FMFlg1=           0
         NFxFlg=           0 DoJE=F BraDBF=F KetDBF=F FulRan=T
         wScrn=  0.000000 ICntrl=         0 IOpCl=  1 I1Cent=           0 NGrid=           0
         NMat0=    1 NMatS0=      1 NMatT0=    0 NMatD0=    1 NMtDS0=    0 NMtDT0=    0
 Symmetry not used in FoFCou.
 E= -430.029120144766    
 DIIS: error= 4.16D-03 at cycle   1 NSaved=   1.
 NSaved= 1 IEnMin= 1 EnMin= -430.029120144766     IErMin= 1 ErrMin= 4.16D-03
 ErrMax= 4.16D-03  0.00D+00 EMaxC= 1.00D-01 BMatC= 1.95D-02 BMatP= 1.95D-02
 IDIUse=3 WtCom= 9.58D-01 WtEn= 4.16D-02
 Coeff-Com:  0.100D+01
 Coeff-En:   0.100D+01
 Coeff:      0.100D+01
 Gap=     0.473 Goal=   None    Shift=    0.000
 Gap=     0.471 Goal=   None    Shift=    0.000
 GapD=    0.471 DampG=2.000 DampE=1.000 DampFc=2.0000 IDamp=-1.
 RMSDP=5.54D-03 MaxDP=1.87D-01              OVMax= 3.83D-02

 Cycle   2  Pass 1  IDiag  1:
 RMSU=  3.55D-03    CP:  9.10D-01
 E= -430.035248589256     Delta-E=       -0.006128444490 Rises=F Damp=F
 DIIS: error= 1.78D-03 at cycle   2 NSaved=   2.
 NSaved= 2 IEnMin= 2 EnMin= -430.035248589256     IErMin= 2 ErrMin= 1.78D-03
 ErrMax= 1.78D-03  0.00D+00 EMaxC= 1.00D-01 BMatC= 1.22D-03 BMatP= 1.95D-02
 IDIUse=3 WtCom= 9.82D-01 WtEn= 1.78D-02
 Coeff-Com:  0.593D-01 0.941D+00
 Coeff-En:   0.000D+00 0.100D+01
 Coeff:      0.583D-01 0.942D+00
 Gap=     0.247 Goal=   None    Shift=    0.000
 Gap=     0.099 Goal=   None    Shift=    0.000
 RMSDP=4.03D-04 MaxDP=1.53D-02 DE=-6.13D-03 OVMax= 8.45D-03

 Cycle   3  Pass 1  IDiag  1:
 RMSU=  2.52D-04    CP:  9.06D-01  1.08D+00
 E= -430.035189499645     Delta-E=        0.000059089611 Rises=F Damp=F
 DIIS: error= 2.07D-03 at cycle   3 NSaved=   3.
 NSaved= 3 IEnMin= 2 EnMin= -430.035248589256     IErMin= 2 ErrMin= 1.78D-03
 ErrMax= 2.07D-03  0.00D+00 EMaxC= 1.00D-01 BMatC= 1.55D-03 BMatP= 1.22D-03
 IDIUse=3 WtCom= 1.80D-01 WtEn= 8.20D-01
 Coeff-Com: -0.151D-01 0.538D+00 0.477D+00
 Coeff-En:   0.000D+00 0.551D+00 0.449D+00
 Coeff:     -0.271D-02 0.549D+00 0.454D+00
 Gap=     0.248 Goal=   None    Shift=    0.000
 Gap=     0.101 Goal=   None    Shift=    0.000
 RMSDP=2.29D-04 MaxDP=8.24D-03 DE= 5.91D-05 OVMax= 5.51D-03

 Cycle   4  Pass 1  IDiag  1:
 RMSU=  1.44D-04    CP:  9.03D-01  1.09D+00  6.94D-01
 E= -430.035497451272     Delta-E=       -0.000307951627 Rises=F Damp=F
 DIIS: error= 3.88D-04 at cycle   4 NSaved=   4.
 NSaved= 4 IEnMin= 4 EnMin= -430.035497451272     IErMin= 4 ErrMin= 3.88D-04
 ErrMax= 3.88D-04  0.00D+00 EMaxC= 1.00D-01 BMatC= 3.25D-05 BMatP= 1.22D-03
 IDIUse=3 WtCom= 9.96D-01 WtEn= 3.88D-03
 Coeff-Com: -0.768D-02 0.141D+00 0.176D+00 0.691D+00
 Coeff-En:   0.000D+00 0.000D+00 0.000D+00 0.100D+01
 Coeff:     -0.765D-02 0.140D+00 0.175D+00 0.692D+00
 Gap=     0.246 Goal=   None    Shift=    0.000
 Gap=     0.102 Goal=   None    Shift=    0.000
 RMSDP=8.68D-05 MaxDP=2.97D-03 DE=-3.08D-04 OVMax= 1.01D-03

 Cycle   5  Pass 1  IDiag  1:
 RMSU=  3.90D-05    CP:  9.04D-01  1.08D+00  6.81D-01  6.19D-01
 E= -430.035500651316     Delta-E=       -0.000003200044 Rises=F Damp=F
 DIIS: error= 1.43D-04 at cycle   5 NSaved=   5.
 NSaved= 5 IEnMin= 5 EnMin= -430.035500651316     IErMin= 5 ErrMin= 1.43D-04
 ErrMax= 1.43D-04  0.00D+00 EMaxC= 1.00D-01 BMatC= 1.08D-05 BMatP= 3.25D-05
 IDIUse=3 WtCom= 9.99D-01 WtEn= 1.43D-03
 Coeff-Com: -0.387D-02 0.398D-01 0.677D-01 0.401D+00 0.495D+00
 Coeff-En:   0.000D+00 0.000D+00 0.000D+00 0.254D+00 0.746D+00
 Coeff:     -0.386D-02 0.397D-01 0.676D-01 0.401D+00 0.495D+00
 Gap=     0.246 Goal=   None    Shift=    0.000
 Gap=     0.101 Goal=   None    Shift=    0.000
 RMSDP=1.46D-05 MaxDP=5.41D-04 DE=-3.20D-06 OVMax= 5.51D-04

 Cycle   6  Pass 1  IDiag  1:
 RMSU=  1.10D-05    CP:  9.04D-01  1.08D+00  7.01D-01  6.18D-01  9.95D-01
 E= -430.035502650822     Delta-E=       -0.000001999506 Rises=F Damp=F
 DIIS: error= 2.01D-05 at cycle   6 NSaved=   6.
 NSaved= 6 IEnMin= 6 EnMin= -430.035502650822     IErMin= 6 ErrMin= 2.01D-05
 ErrMax= 2.01D-05  0.00D+00 EMaxC= 1.00D-01 BMatC= 1.95D-07 BMatP= 1.08D-05
 IDIUse=1 WtCom= 1.00D+00 WtEn= 0.00D+00
 Coeff-Com: -0.297D-03-0.166D-02 0.616D-02 0.611D-01 0.144D+00 0.791D+00
 Coeff:     -0.297D-03-0.166D-02 0.616D-02 0.611D-01 0.144D+00 0.791D+00
 Gap=     0.246 Goal=   None    Shift=    0.000
 Gap=     0.101 Goal=   None    Shift=    0.000
 RMSDP=2.76D-06 MaxDP=9.12D-05 DE=-2.00D-06 OVMax= 1.54D-04

 Cycle   7  Pass 1  IDiag  1:
 RMSU=  2.29D-06    CP:  9.04D-01  1.08D+00  7.03D-01  6.15D-01  1.01D+00
                    CP:  9.24D-01
 E= -430.035502686259     Delta-E=       -0.000000035437 Rises=F Damp=F
 DIIS: error= 1.41D-05 at cycle   7 NSaved=   7.
 NSaved= 7 IEnMin= 7 EnMin= -430.035502686259     IErMin= 7 ErrMin= 1.41D-05
 ErrMax= 1.41D-05  0.00D+00 EMaxC= 1.00D-01 BMatC= 6.15D-08 BMatP= 1.95D-07
 IDIUse=1 WtCom= 1.00D+00 WtEn= 0.00D+00
 Coeff-Com:  0.981D-04-0.374D-02-0.199D-02-0.153D-02 0.325D-01 0.434D+00
 Coeff-Com:  0.541D+00
 Coeff:      0.981D-04-0.374D-02-0.199D-02-0.153D-02 0.325D-01 0.434D+00
 Coeff:      0.541D+00
 Gap=     0.246 Goal=   None    Shift=    0.000
 Gap=     0.101 Goal=   None    Shift=    0.000
 RMSDP=1.44D-06 MaxDP=4.77D-05 DE=-3.54D-08 OVMax= 1.06D-04

 Cycle   8  Pass 1  IDiag  1:
 RMSU=  9.27D-07    CP:  9.04D-01  1.08D+00  7.04D-01  6.14D-01  1.01D+00
                    CP:  9.68D-01  7.33D-01
 E= -430.035502702261     Delta-E=       -0.000000016002 Rises=F Damp=F
 DIIS: error= 8.59D-06 at cycle   8 NSaved=   8.
 NSaved= 8 IEnMin= 8 EnMin= -430.035502702261     IErMin= 8 ErrMin= 8.59D-06
 ErrMax= 8.59D-06  0.00D+00 EMaxC= 1.00D-01 BMatC= 1.30D-08 BMatP= 6.15D-08
 IDIUse=1 WtCom= 1.00D+00 WtEn= 0.00D+00
 Coeff-Com:  0.143D-03-0.203D-02-0.246D-02-0.131D-01-0.105D-01 0.799D-01
 Coeff-Com:  0.325D+00 0.623D+00
 Coeff:      0.143D-03-0.203D-02-0.246D-02-0.131D-01-0.105D-01 0.799D-01
 Coeff:      0.325D+00 0.623D+00
 Gap=     0.246 Goal=   None    Shift=    0.000
 Gap=     0.101 Goal=   None    Shift=    0.000
 RMSDP=6.79D-07 MaxDP=2.43D-05 DE=-1.60D-08 OVMax= 4.94D-05

 Cycle   9  Pass 1  IDiag  1:
 RMSU=  4.21D-07    CP:  9.04D-01  1.08D+00  7.03D-01  6.15D-01  1.01D+00
                    CP:  9.55D-01  8.10D-01  7.51D-01
[...]
   R10        2.60342   0.00010   0.00000   0.00042   0.00042   2.60384
   R11        2.04856   0.00001   0.00000   0.00002   0.00002   2.04857
   R12        2.05063   0.00001   0.00000   0.00003   0.00003   2.05066
    A1        2.12233   0.00007   0.00000   0.00036   0.00036   2.12269
    A2        2.09040   0.00002   0.00000   0.00008   0.00008   2.09048
    A3        2.07046  -0.00008   0.00000  -0.00044  -0.00044   2.07001
    A4        2.04698  -0.00005   0.00000  -0.00044  -0.00044   2.04654
    A5        2.14478   0.00002   0.00000   0.00005   0.00005   2.14483
    A6        2.09142   0.00003   0.00000   0.00039   0.00039   2.09181
    A7        2.11388  -0.00002   0.00000   0.00007   0.00007   2.11395
    A8        2.12982   0.00007   0.00000   0.00046   0.00046   2.13028
    A9        2.03948  -0.00005   0.00000  -0.00053  -0.00053   2.03895
   A10        2.11389  -0.00002   0.00000   0.00005   0.00005   2.11394
   A11        2.03951  -0.00005   0.00000  -0.00055  -0.00055   2.03896
   A12        2.12978   0.00007   0.00000   0.00050   0.00050   2.13029
   A13        2.04698  -0.00005   0.00000  -0.00043  -0.00043   2.04654
   A14        2.09139   0.00003   0.00000   0.00044   0.00044   2.09183
   A15        2.14481   0.00002   0.00000  -0.00000  -0.00000   2.14481
   A16        2.12231   0.00007   0.00000   0.00039   0.00039   2.12270
   A17        2.07044  -0.00008   0.00000  -0.00044  -0.00044   2.07000
   A18        2.09044   0.00001   0.00000   0.00005   0.00005   2.09048
    D1       -0.00000   0.00000   0.00000   0.00000   0.00000   0.00000
    D2        3.14159   0.00000   0.00000   0.00000   0.00000   3.14159
    D3       -3.14159  -0.00000   0.00000  -0.00000  -0.00000   3.14159
    D4        0.00000  -0.00000   0.00000  -0.00000  -0.00000   0.00000
    D5        0.00000  -0.00000   0.00000  -0.00000  -0.00000   0.00000
    D6        3.14159  -0.00000   0.00000   0.00000   0.00000   3.14159
    D7       -3.14159  -0.00000   0.00000  -0.00000  -0.00000   3.14159
    D8       -0.00000   0.00000   0.00000   0.00000   0.00000  -0.00000
    D9       -0.00000   0.00000   0.00000   0.00000   0.00000   0.00000
   D10       -3.14159  -0.00000   0.00000  -0.00000  -0.00000   3.14159
   D11        3.14159   0.00000   0.00000   0.00000   0.00000   3.14159
   D12        0.00000  -0.00000   0.00000  -0.00000  -0.00000   0.00000
   D13        0.00000  -0.00000   0.00000  -0.00000  -0.00000   0.00000
   D14        3.14159   0.00000   0.00000   0.00000   0.00000   3.14159
   D15        3.14159  -0.00000   0.00000  -0.00000   0.00000   3.14159
   D16       -0.00000   0.00000   0.00000   0.00000   0.00000   0.00000
   D17       -0.00000   0.00000   0.00000   0.00000   0.00000   0.00000
   D18        3.14159   0.00000   0.00000   0.00000   0.00000   3.14159
   D19        3.14159  -0.00000   0.00000  -0.00000   0.00000   3.14159
   D20        0.00000  -0.00000   0.00000  -0.00000  -0.00000   0.00000
   D21       -0.00000   0.00000   0.00000   0.00000   0.00000   0.00000
   D22       -3.14159  -0.00000   0.00000  -0.00000  -0.00000   3.14159
   D23        3.14159   0.00000   0.00000   0.00000   0.00000   3.14159
   D24        0.00000  -0.00000   0.00000  -0.00000  -0.00000   0.00000
         Item               Value     Threshold  Converged?
 Maximum Force            0.000414     0.000450     YES
 RMS     Force            0.000086     0.000300     YES
 Maximum Displacement     0.001284     0.001800     YES
 RMS     Displacement     0.000395     0.001200     YES
 Predicted change in Energy=-7.462486D-07
 Optimization completed.
    -- Stationary point found.
                           ----------------------------
                           !   Optimized Parameters   !
                           ! (Angstroms and Degrees)  !
 --------------------------                            --------------------------
 ! Name  Definition              Value          Derivative Info.                !
 --------------------------------------------------------------------------------
 ! R1    R(1,2)                  1.3777         -DE/DX =    0.0001              !
 ! R2    R(1,6)                  1.44           -DE/DX =   -0.0004              !
 ! R3    R(1,7)                  1.0851         -DE/DX =    0.0                 !
 ! R4    R(2,3)                  1.386          -DE/DX =   -0.0002              !
 ! R5    R(2,8)                  1.084          -DE/DX =    0.0                 !
 ! R6    R(3,4)                  1.4512         -DE/DX =    0.0003              !
 ! R7    R(3,11)                 1.2892         -DE/DX =    0.0001              !
 ! R8    R(4,5)                  1.386          -DE/DX =   -0.0002              !
 ! R9    R(4,12)                 1.2892         -DE/DX =    0.0001              !
 ! R10   R(5,6)                  1.3777         -DE/DX =    0.0001              !
 ! R11   R(5,9)                  1.0841         -DE/DX =    0.0                 !
 ! R12   R(6,10)                 1.0851         -DE/DX =    0.0                 !
 ! A1    A(2,1,6)              121.6004         -DE/DX =    0.0001              !
 ! A2    A(2,1,7)              119.7711         -DE/DX =    0.0                 !
 ! A3    A(6,1,7)              118.6284         -DE/DX =   -0.0001              !
 ! A4    A(1,2,3)              117.2834         -DE/DX =    0.0                 !
 ! A5    A(1,2,8)              122.8871         -DE/DX =    0.0                 !
 ! A6    A(3,2,8)              119.8296         -DE/DX =    0.0                 !
 ! A7    A(2,3,4)              121.1164         -DE/DX =    0.0                 !
 ! A8    A(2,3,11)             122.0298         -DE/DX =    0.0001              !
 ! A9    A(4,3,11)             116.8538         -DE/DX =    0.0                 !
 ! A10   A(3,4,5)              121.1172         -DE/DX =    0.0                 !
 ! A11   A(3,4,12)             116.8553         -DE/DX =   -0.0001              !
 ! A12   A(5,4,12)             122.0275         -DE/DX =    0.0001              !
 ! A13   A(4,5,6)              117.2831         -DE/DX =    0.0                 !
 ! A14   A(4,5,9)              119.8281         -DE/DX =    0.0                 !
 ! A15   A(6,5,9)              122.8888         -DE/DX =    0.0                 !
 ! A16   A(1,6,5)              121.5995         -DE/DX =    0.0001              !
 ! A17   A(1,6,10)             118.6272         -DE/DX =   -0.0001              !
 ! A18   A(5,6,10)             119.7733         -DE/DX =    0.0                 !
 ! D1    D(6,1,2,3)              0.0            -DE/DX =    0.0                 !
 ! D2    D(6,1,2,8)            180.0            -DE/DX =    0.0                 !
 ! D3    D(7,1,2,3)            180.0            -DE/DX =    0.0                 !
 ! D4    D(7,1,2,8)              0.0            -DE/DX =    0.0                 !
 ! D5    D(2,1,6,5)              0.0            -DE/DX =    0.0                 !
 ! D6    D(2,1,6,10)           180.0            -DE/DX =    0.0                 !
 ! D7    D(7,1,6,5)            180.0            -DE/DX =    0.0                 !
 ! D8    D(7,1,6,10)             0.0            -DE/DX =    0.0                 !
 ! D9    D(1,2,3,4)              0.0            -DE/DX =    0.0                 !
 ! D10   D(1,2,3,11)           180.0            -DE/DX =    0.0                 !
 ! D11   D(8,2,3,4)            180.0            -DE/DX =    0.0                 !
 ! D12   D(8,2,3,11)             0.0            -DE/DX =    0.0                 !
 ! D13   D(2,3,4,5)              0.0            -DE/DX =    0.0                 !
 ! D14   D(2,3,4,12)           180.0            -DE/DX =    0.0                 !
 ! D15   D(11,3,4,5)           180.0            -DE/DX =    0.0                 !
 ! D16   D(11,3,4,12)            0.0            -DE/DX =    0.0                 !
 ! D17   D(3,4,5,6)              0.0            -DE/DX =    0.0                 !
 ! D18   D(3,4,5,9)            180.0            -DE/DX =    0.0                 !
 ! D19   D(12,4,5,6)           180.0            -DE/DX =    0.0                 !
 ! D20   D(12,4,5,9)             0.0            -DE/DX =    0.0                 !
 ! D21   D(4,5,6,1)              0.0            -DE/DX =    0.0                 !
 ! D22   D(4,5,6,10)           180.0            -DE/DX =    0.0                 !
 ! D23   D(9,5,6,1)            180.0            -DE/DX =    0.0                 !
 ! D24   D(9,5,6,10)             0.0            -DE/DX =    0.0                 !
 --------------------------------------------------------------------------------
 GradGradGradGradGradGradGradGradGradGradGradGradGradGradGradGradGradGrad

 Leave Link  103 at Wed Jan 29 15:49:21 2025, MaxMem=   104857600 cpu:               0.0 elap:               0.0
 (Enter /sw/cluster/pub/apps//g16/l9999.exe)

 ----------------------------------------------------------------------

 Electric dipole moment (input orientation):
 (Debye = 10**-18 statcoulomb cm , SI units = C m)
                  (au)            (Debye)         (10**-30 SI)
   Tot        0.519278D+00      0.131987D+01      0.440262D+01
   x          0.259622D+00      0.659894D+00      0.220117D+01
   y          0.449718D+00      0.114307D+01      0.381287D+01
   z          0.000000D+00      0.000000D+00      0.000000D+00

 Dipole polarizability, Alpha (input orientation).
 (esu units = cm**3 , SI units = C**2 m**2 J**-1)
 Alpha(0;0):
               (au)            (10**-24 esu)      (10**-40 SI)
   iso        0.617873D+02      0.915594D+01      0.101874D+02
   aniso      0.458910D+02      0.680034D+01      0.756640D+01
   xx         0.736029D+02      0.109068D+02      0.121355D+02
   yx         0.531195D+01      0.787150D+00      0.875823D+00
   yy         0.797348D+02      0.118155D+02      0.131465D+02
   zx         0.000000D+00      0.000000D+00      0.000000D+00
   zy         0.000000D+00      0.000000D+00      0.000000D+00
   zz         0.320243D+02      0.474552D+01      0.528010D+01

 ----------------------------------------------------------------------

 Dipole orientation:
     6          1.17836367         -0.68026995          2.21460415
     6          2.35973357         -1.36227537         -0.00287452
     6          1.18747751         -0.68553135         -2.24507977
     6         -1.18758151          0.68559138         -2.24497400
     6         -2.35973864          1.36227829         -0.00264187
     6         -1.17825706          0.68020841          2.21471690
     1          2.02932711         -1.17153155          4.01449284
     1          4.13342534         -2.38622851         -0.04895776
     1         -4.13343261          2.38623271         -0.04865095
     1         -2.02905727          1.17137578          4.01470667
     9          2.14044504         -1.23568000         -4.41856946
     9         -2.14073659          1.23584830         -4.41833898

 Electric dipole moment (dipole orientation):
 (Debye = 10**-18 statcoulomb cm , SI units = C m)
                  (au)            (Debye)         (10**-30 SI)
   Tot        0.519278D+00      0.131987D+01      0.440262D+01
   x          0.000000D+00      0.000000D+00      0.000000D+00
   y          0.000000D+00      0.000000D+00      0.000000D+00
   z          0.519278D+00      0.131987D+01      0.440262D+01

 Dipole polarizability, Alpha (dipole orientation).
 (esu units = cm**3 , SI units = C**2 m**2 J**-1)
 Alpha(0;0):
               (au)            (10**-24 esu)      (10**-40 SI)
   iso        0.617873D+02      0.915594D+01      0.101874D+02
   aniso      0.458910D+02      0.680034D+01      0.756640D+01
   xx         0.609090D+02      0.902578D+01      0.100425D+02
   yx        -0.166751D+02     -0.247100D+01     -0.274936D+01
   yy         0.416509D+02      0.617202D+01      0.686730D+01
   zx         0.106425D-02      0.157705D-03      0.175471D-03
   zy        -0.614352D-03     -0.910376D-04     -0.101293D-03
   zz         0.828021D+02      0.122700D+02      0.136522D+02

 ----------------------------------------------------------------------
 1\1\GINC-N03\Freq\UPBE1PBE\6-311++G(d,p)\C6H4F2(1+,2)\UNKNOWN\29-Jan-2
 025\0\\#P Geom=AllCheck Guess=TCheck SCRF=Check GenChk UPBE1PBE/6-311+
 +G(d,p) Freq\\1 2-DFB SP\\1,2\C,1.2094843428,0.6549493241,0.0000000058
 \C,1.2479567144,-0.7222024502,-0.0000000003\C,0.0344019142,-1.39166693
 94,-0.000000006\C,-1.2223972016,-0.6660515551,0.000000009\C,-1.2494188
 729,0.7196758846,0.0000000013\C,-0.0375558199,1.3749351261,-0.00000000
 54\H,2.1359940458,1.2198572719,0.0000000012\H,2.1743616652,-1.28517464
 22,-0.0000000031\H,-2.2001899923,1.2404436901,-0.0000000015\H,-0.01155
 39066,2.4597684352,0.0000000001\F,-0.0363528035,-2.6788833546,0.000000
 0025\F,-2.3017955816,-1.3709012754,-0.0000000026\\Version=ES64L-G16Rev
 A.03\HF=-430.0361424\S2=0.767762\S2-1=0.\S2A=0.750185\RMSD=4.749e-09\R
 MSF=1.647e-04\ZeroPoint=0.0837341\Thermal=0.0899969\Dipole=0.8802962,1
 .5247546,0.\DipoleDeriv=0.2816511,0.22854,0.,-0.0276197,0.3292086,0.,0
 .,0.,0.042176,-0.0625315,-0.5231778,0.,-0.0383875,-0.7275708,0.,0.,0.,
 -0.0904326,0.2413811,0.3843806,0.,0.1812007,1.8027726,0.,0.,0.,0.27951
 64,1.1676643,0.7158748,0.,0.9190169,0.8766139,0.,0.,0.,0.2795599,-0.31
 80148,-0.1857993,0.,-0.6706165,-0.4718714,0.,0.,0.,-0.0903837,0.229939
 1,-0.0572984,0.,0.1989025,0.3804485,0.,0.,0.,0.042062,0.1168111,0.0152
 907,0.,0.0172728,0.1274271,0.,0.,0.,0.1431467,0.1652416,-0.0155665,0.,
 -0.015915,0.1177353,0.,0.,0.,0.1771235,0.1432202,-0.0286133,0.,-0.0282
 519,0.1397274,0.,0.,0.,0.1771234,0.1106758,0.0137289,0.,0.0117481,0.13
 35528,0.,0.,0.,0.1431506,-0.111276,-0.0590135,0.,0.0043843,-1.2807654,
 0.,0.,0.,-0.0515297,-0.9647619,-0.4883461,0.,-0.5517349,-0.4272788,0.,
 0.,0.,-0.0515127\Polar=73.6028555,5.3119529,79.7347899,0.,0.,32.024326
 6\Quadrupole=3.5834165,2.3512031,-5.9346196,-1.0665378,0.,0.\PG=C01 [X
 (C6H4F2)]\NImag=0\\0.66059950,0.06407916,0.71059574,0.,0.,0.12998963,-
 0.13117873,0.06103664,0.,0.70760999,-0.02165440,-0.35788117,0.,-0.1004
 1697,0.66825784,0.,0.,-0.04655087,0.,0.,0.10278759,0.04468433,-0.09297
 195,0.,-0.28718307,0.00406205,0.,0.64040388,-0.03449095,-0.04784208,0.
 ,-0.08720981,-0.11503035,0.,0.03268324,0.75278854,0.,0.,-0.00806743,0.
 ,0.,-0.05425784,0.,0.,0.13943290,-0.02024119,0.01682444,0.,-0.02685341
 ,0.00214478,0.,-0.22223185,0.09700493,0.,0.69638327,0.00355803,0.00594
 697,0.,-0.03299721,-0.01487207,0.,0.09096978,-0.11369554,0.,0.06501082
 ,0.69670699,0.,0.,0.00260720,0.,0.,0.00103785,0.,0.,-0.06396424,0.,0.,
 0.13943098,-0.03380364,-0.01285930,0.,0.01609061,0.01684036,0.,-0.0044
 9152,0.01503692,0.,-0.12206763,0.09941263,0.,0.76509424,0.02110479,-0.
 00372357,0.,0.03312643,0.04493120,0.,-0.02006241,-0.03720834,0.,0.0081
 1676,-0.28005746,0.,-0.06723569,0.61072504,0.,0.,-0.00271680,0.,0.,0.0
 0943730,0.,0.,0.00103383,0.,0.,-0.05426058,0.,0.,0.10278781,-0.2505857
 3,0.07679037,0.,-0.01478809,-0.00187542,0.,-0.00947039,0.02305909,0.,0
 .03050712,-0.10114172,0.,-0.31830149,-0.04704528,0.,0.64261815,0.08235
 656,-0.15872735,0.,0.03205721,-0.02270943,0.,0.00979164,-0.00486961,0.
 ,-0.04268460,-0.03364802,0.,-0.12967992,-0.17080698,0.,0.05372390,0.72
 862103,0.,0.,-0.05600798,0.,0.,-0.00272260,0.,0.,0.00261285,0.,0.,-0.0
 0806705,0.,0.,-0.04655086,0.,0.,0.12998352,-0.27203433,-0.13159286,0.,
 0.00801179,0.00509753,0.,-0.00033606,0.00062216,0.,-0.00035388,0.00156
 450,0.,-0.00313304,0.00246745,0.,-0.01596933,-0.01423273,0.,0.28201336
 ,-0.13035490,-0.13936125,0.,-0.02505275,-0.00903183,0.,0.00008451,-0.0
 0555586,0.,0.00010925,-0.00027081,0.,0.00306458,-0.00264167,0.,0.01734
 643,0.01227294,0.,0.13594676,0.14277850,0.,0.,-0.04228279,0.,0.,0.0099
 2447,0.,0.,0.00959424,0.,0.,-0.00207529,0.,0.,0.00311372,0.,0.,0.00548
 542,0.,0.,0.02341851,0.00715773,-0.00194567,0.,-0.27675790,0.12847137,
 0.,-0.01828178,0.01530978,0.,-0.00100568,-0.00441143,0.,0.00070354,0.0
 0085274,0.,0.00064432,-0.00186754,0.,0.00061842,0.00003503,0.,0.285196
 56,0.02619876,-0.00914988,0.,0.13013165,-0.13487845,0.,-0.01649341,0.0
 1317361,0.,-0.00183038,-0.00352690,0.,0.00016197,0.00108230,0.,-0.0019
 8285,-0.00530272,0.,-0.00004760,0.00107091,0.,-0.13758723,0.13657168,0
 .,0.,0.00270918,0.,0.,-0.03528837,0.,0.,0.00349770,0.,0.,0.00646789,0.
 ,0.,-0.00196460,0.,0.,0.00848961,0.,0.,-0.00445283,0.,0.,0.02515377,-0
 .00214972,-0.00359516,0.,0.00054763,0.00007137,0.,-0.00019251,-0.00136
 208,0.,0.00582268,-0.00257861,0.,-0.28233603,0.12691266,0.,-0.01557331
 ,0.01307377,0.,-0.00055447,0.00068847,0.,-0.00004195,0.00009792,0.,0.2
 9289055,-0.00347955,-0.00251065,0.,0.00076318,0.00123875,0.,-0.0039428
 9,-0.00433832,0.,0.02922687,-0.01092988,0.,0.12525126,-0.12929992,0.,-
 0.01507022,0.01358269,0.,-0.00075847,0.00056187,0.,0.00010396,0.000074
 64,0.,-0.13314486,0.12887516,0.,0.,0.00849121,0.,0.,-0.00196451,0.,0.,
 0.00646605,0.,0.,0.00349747,0.,0.,-0.03528712,0.,0.,0.00270964,0.,0.,-
 0.00018609,0.,0.,-0.00051480,0.,0.,0.02515356,0.00386324,0.02879887,0.
 ,-0.00515931,0.00189418,0.,-0.00101682,-0.00027348,0.,-0.00455666,-0.0
 0235216,0.,0.00387039,-0.02744365,0.,-0.05909961,-0.00743073,0.,0.0007
 9137,-0.00021746,0.,0.00031312,0.00118931,0.,0.00096345,0.00023433,0.,
 0.05985046,-0.00278099,-0.00756157,0.,0.00129710,-0.00061460,0.,0.0011
 8168,0.00039216,0.,-0.00181406,-0.00133559,0.,0.00270505,-0.00488975,0
 .,-0.00866659,-0.35229023,0.,0.00003356,0.00068503,0.,-0.00025757,-0.0
 0030577,0.,0.00015158,0.00072604,0.,0.00769268,0.36493671,0.,0.,0.0054
 8433,0.,0.,0.00311337,0.,0.,-0.00207560,0.,0.,0.00959593,0.,0.,0.00992
 364,0.,0.,-0.04227473,0.,0.,-0.00083937,0.,0.,-0.00018560,0.,0.,-0.004
 45388,0.,0.,0.02341215,-0.01016063,0.00456906,0.,0.00538523,-0.0534354
 3,0.,-0.07876304,-0.01768679,0.,0.00393252,0.03222218,0.,-0.00461981,0
 .00654807,0.,-0.00220318,-0.00162845,0.,0.00066415,-0.00154248,0.,0.00
 242264,0.00185295,0.,0.00061821,0.00166111,0.,0.00023636,-0.00011347,0
 .,0.07532296,-0.00640476,0.01863574,0.,-0.02442191,-0.06942825,0.,0.00
 118576,-0.43569661,0.,-0.00398078,-0.06918073,0.,0.01366624,0.01891652
 ,0.,-0.01262604,-0.00236373,0.,0.00098681,-0.00061661,0.,0.00055191,0.
 00058954,0.,-0.00077472,-0.00098644,0.,-0.00013365,0.00015419,0.,0.023
 44179,0.52552206,0.,0.,0.00741763,0.,0.,0.01213540,0.,0.,-0.04287774,0
 .,0.,0.00860360,0.,0.,0.00234776,0.,0.,-0.00107390,0.,0.,-0.00206295,0
 .,0.,-0.00393450,0.,0.,0.00002298,0.,0.,0.00036276,0.,0.,0.02105135,0.
 00384917,-0.00913361,0.,0.00427527,0.01880057,0.,-0.06312116,-0.042692
 99,0.,-0.33933529,-0.14925682,0.,-0.01700562,-0.03734188,0.,0.01222156
 ,0.00652089,0.,0.00028202,-0.00010743,0.,-0.00096902,-0.00169110,0.,0.
 00000546,-0.00084472,0.,-0.00005600,0.00057103,0.,0.00716459,0.0085093
 5,0.,0.39268903,0.00186825,-0.00842092,0.,0.01168644,0.01001837,0.,-0.
 00648802,-0.00211760,0.,-0.16812802,-0.17513696,0.,-0.06636410,-0.0470
 2738,0.,0.01748833,-0.00375859,0.,-0.00008711,0.00010877,0.,0.00074464
 ,0.00060105,0.,0.00045966,0.00300605,0.,-0.00195825,0.00010339,0.,0.00
 411148,0.01445429,0.,0.20666671,0.20816951,0.,0.,-0.00107331,0.,0.,0.0
 0234821,0.,0.,0.00860528,0.,0.,-0.04287377,0.,0.,0.01213588,0.,0.,0.00
 741608,0.,0.,0.00036298,0.,0.,0.00002255,0.,0.,-0.00393452,0.,0.,-0.00
 206298,0.,0.,-0.00199239,0.,0.,0.02104600\\0.00038644,-0.00025587,0.,0
 .00012258,0.00017312,0.,-0.00044259,-0.00005089,0.,0.00017800,-0.00042
 337,0.,0.00009719,0.00021262,0.,-0.00042349,0.00020417,0.,0.00001983,-
 0.00004490,0.,-0.00001199,0.00000198,0.,0.00000686,-0.00001073,0.,-0.0
 0004618,-0.00000555,0.,0.00005296,0.00009894,0.,0.00006038,0.00010047,
 0.\\\@


 BE CAREFUL NOT TO BECOME TOO GOOD OF A SONGBIRD OR 
 THEY'LL THROW YOU INTO A CAGE.

                                    -- SNOOPY TO WOODSTOCK
 Job cpu time:       0 days  0 hours  8 minutes 10.0 seconds.
 Elapsed time:       0 days  0 hours  8 minutes 10.9 seconds.
 File lengths (MBytes):  RWF=    112 Int=      0 D2E=      0 Chk=      7 Scr=      1
 Normal termination of Gaussian 16 at Wed Jan 29 15:49:21 2025.
