 Entering Gaussian System, Link 0=g16
 Initial command:
 /sw/cluster/pub/apps//g16/l1.exe "/data/natrosa/28457/Gau-7123.inp" -scrdir="/data/natrosa/28457/"
 Entering Link 1 = /sw/cluster/pub/apps//g16/l1.exe PID=      7124.
  
 Copyright (c) 1988,1990,1992,1993,1995,1998,2003,2009,2016,
            Gaussian, Inc.  All Rights Reserved.
  
 This is part of the Gaussian(R) 16 program.  It is based on
 the Gaussian(R) 09 system (copyright 2009, Gaussian, Inc.),
 the Gaussian(R) 03 system (copyright 2003, Gaussian, Inc.),
 the Gaussian(R) 98 system (copyright 1998, Gaussian, Inc.),
 the Gaussian(R) 94 system (copyright 1995, Gaussian, Inc.),
 the Gaussian 92(TM) system (copyright 1992, Gaussian, Inc.),
 the Gaussian 90(TM) system (copyright 1990, Gaussian, Inc.),
 the Gaussian 88(TM) system (copyright 1988, Gaussian, Inc.),
 the Gaussian 86(TM) system (copyright 1986, Carnegie Mellon
 University), and the Gaussian 82(TM) system (copyright 1983,
 Carnegie Mellon University). Gaussian is a federally registered
 trademark of Gaussian, Inc.
  
 This software contains proprietary and confidential information,
 including trade secrets, belonging to Gaussian, Inc.
  
 This software is provided under written license and may be
 used, copied, transmitted, or stored only in accord with that
 written license.
  
 The following legend is applicable only to US Government
 contracts under FAR:
  
                    RESTRICTED RIGHTS LEGEND
  
 Use, reproduction and disclosure by the US Government is
 subject to restrictions as set forth in subparagraphs (a)
 and (c) of the Commercial Computer Software - Restricted
 Rights clause in FAR 52.227-19.
  
 Gaussian, Inc.
 340 Quinnipiac St., Bldg. 40, Wallingford CT 06492
  
  
 ---------------------------------------------------------------
 Warning -- This program may not be used in any manner that
 competes with the business of Gaussian, Inc. or will provide
 assistance to any competitor of Gaussian, Inc.  The licensee
 of this program is prohibited from giving any competitor of
 Gaussian, Inc. access to this program.  By using this program,
 the user acknowledges that Gaussian, Inc. is engaged in the
 business of creating and licensing software in the field of
 computational chemistry and represents and warrants to the
 licensee that it is not a competitor of Gaussian, Inc. and that
 it will not use this program in any manner prohibited above.
 ---------------------------------------------------------------
  

 Cite this work as:
 Gaussian 16, Revision A.03,
 M. J. Frisch, G. W. Trucks, H. B. Schlegel, G. E. Scuseria, 
 M. A. Robb, J. R. Cheeseman, G. Scalmani, V. Barone, 
 G. A. Petersson, H. Nakatsuji, X. Li, M. Caricato, A. V. Marenich, 
 J. Bloino, B. G. Janesko, R. Gomperts, B. Mennucci, H. P. Hratchian, 
 J. V. Ortiz, A. F. Izmaylov, J. L. Sonnenberg, D. Williams-Young, 
 F. Ding, F. Lipparini, F. Egidi, J. Goings, B. Peng, A. Petrone, 
 T. Henderson, D. Ranasinghe, V. G. Zakrzewski, J. Gao, N. Rega, 
 G. Zheng, W. Liang, M. Hada, M. Ehara, K. Toyota, R. Fukuda, 
 J. Hasegawa, M. Ishida, T. Nakajima, Y. Honda, O. Kitao, H. Nakai, 
 T. Vreven, K. Throssell, J. A. Montgomery, Jr., J. E. Peralta, 
 F. Ogliaro, M. J. Bearpark, J. J. Heyd, E. N. Brothers, K. N. Kudin, 
 V. N. Staroverov, T. A. Keith, R. Kobayashi, J. Normand, 
 K. Raghavachari, A. P. Rendell, J. C. Burant, S. S. Iyengar, 
 J. Tomasi, M. Cossi, J. M. Millam, M. Klene, C. Adamo, R. Cammi, 
 J. W. Ochterski, R. L. Martin, K. Morokuma, O. Farkas, 
 J. B. Foresman, and D. J. Fox, Gaussian, Inc., Wallingford CT, 2016.
 
 ******************************************
 Gaussian 16:  ES64L-G16RevA.03 25-Dec-2016
                29-Jan-2025 
 ******************************************
 %chk=1-2-DFB-ANI.chk
 --------------------------------------------------------
 #p opt freq PBE1PBE/6-311++G(d,p) density=current nosymm
 --------------------------------------------------------
 1/18=20,19=15,26=3,38=1/1,3;
 2/9=110,12=2,15=1,17=6,18=5,40=1/2;
 3/5=4,6=6,7=1111,11=2,25=1,30=1,71=1,74=-13/1,2,3;
 4//1;
 5/5=2,38=5/2;
 6/7=2,8=2,9=2,10=2,22=-1,28=1/1;
 7/30=1/1,2,3,16;
 1/18=20,19=15,26=3/3(2);
 2/9=110,15=1/2;
 99//99;
 2/9=110,15=1/2;
 3/5=4,6=6,7=1111,11=2,25=1,30=1,71=1,74=-13/1,2,3;
 4/5=5,16=3,69=1/1;
 5/5=2,38=5/2;
 7/30=1/1,2,3,16;
 1/18=20,19=15,26=3/3(-5);
 2/9=110,15=1/2;
 6/7=2,8=2,9=2,10=2,19=2,22=-1,28=1/1;
 99/9=1/99;
 Leave Link    1 at Wed Jan 29 15:36:09 2025, MaxMem=           0 cpu:               0.0 elap:               0.0
 (Enter /sw/cluster/pub/apps//g16/l101.exe)
 ----------
 1 2-DFB SP
 ----------
 Symbolic Z-matrix:
 Charge = -1 Multiplicity = 2
 C                     1.2012    0.69079   0. 
 C                     1.20653  -0.69979   0. 
 C                     0.004    -1.38112   0. 
 C                    -1.19791  -0.68708   0. 
 C                    -1.20921   0.69502   0. 
 C                    -0.00238   1.38576   0. 
 H                     2.14236   1.22886   0. 
 H                     2.12917  -1.26898   0. 
 H                    -2.16358   1.20921   0. 
 H                    -0.00703   2.46986   0. 
 F                    -0.01534  -2.71653  0. 
 F                    -2.34487  -1.37123   0. 
 
 ITRead=  0  0  0  0  0  0  0  0  0  0  0  0
 MicOpt= -1 -1 -1 -1 -1 -1 -1 -1 -1 -1 -1 -1
 NAtoms=     12 NQM=       12 NQMF=       0 NMMI=      0 NMMIF=      0
                NMic=       0 NMicF=      0.
                    Isotopes and Nuclear Properties:
 (Nuclear quadrupole moments (NQMom) in fm**2, nuclear magnetic moments (NMagM)
  in nuclear magnetons)

  Atom         1           2           3           4           5           6           7           8           9          10
 IAtWgt=          12          12          12          12          12          12           1           1           1           1
 AtmWgt=  12.0000000  12.0000000  12.0000000  12.0000000  12.0000000  12.0000000   1.0078250   1.0078250   1.0078250   1.0078250
 NucSpn=           0           0           0           0           0           0           1           1           1           1
 AtZEff=  -0.0000000  -0.0000000  -0.0000000  -0.0000000  -0.0000000  -0.0000000  -0.0000000  -0.0000000  -0.0000000  -0.0000000
 NQMom=    0.0000000   0.0000000   0.0000000   0.0000000   0.0000000   0.0000000   0.0000000   0.0000000   0.0000000   0.0000000
 NMagM=    0.0000000   0.0000000   0.0000000   0.0000000   0.0000000   0.0000000   2.7928460   2.7928460   2.7928460   2.7928460
 AtZNuc=   6.0000000   6.0000000   6.0000000   6.0000000   6.0000000   6.0000000   1.0000000   1.0000000   1.0000000   1.0000000

  Atom        11          12
 IAtWgt=          19          19
 AtmWgt=  18.9984032  18.9984032
 NucSpn=           1           1
 AtZEff=  -0.0000000  -0.0000000
 NQMom=    0.0000000   0.0000000
 NMagM=    2.6288670   2.6288670
 AtZNuc=   9.0000000   9.0000000
 Leave Link  101 at Wed Jan 29 15:36:09 2025, MaxMem=   104857600 cpu:               0.0 elap:               0.0
 (Enter /sw/cluster/pub/apps//g16/l103.exe)

 GradGradGradGradGradGradGradGradGradGradGradGradGradGradGradGradGradGrad
 Berny optimization.
 Initialization pass.
                           ----------------------------
                           !    Initial Parameters    !
                           ! (Angstroms and Degrees)  !
 --------------------------                            --------------------------
 ! Name  Definition              Value          Derivative Info.                !
 --------------------------------------------------------------------------------
 ! R1    R(1,2)                  1.3906         estimate D2E/DX2                !
 ! R2    R(1,6)                  1.3898         estimate D2E/DX2                !
 ! R3    R(1,7)                  1.0841         estimate D2E/DX2                !
 ! R4    R(2,3)                  1.3821         estimate D2E/DX2                !
 ! R5    R(2,8)                  1.0841         estimate D2E/DX2                !
 ! R6    R(3,4)                  1.3879         estimate D2E/DX2                !
 ! R7    R(3,11)                 1.3356         estimate D2E/DX2                !
 ! R8    R(4,5)                  1.3821         estimate D2E/DX2                !
 ! R9    R(4,12)                 1.3355         estimate D2E/DX2                !
 ! R10   R(5,6)                  1.3905         estimate D2E/DX2                !
 ! R11   R(5,9)                  1.0841         estimate D2E/DX2                !
 ! R12   R(6,10)                 1.0841         estimate D2E/DX2                !
 ! A1    A(2,1,6)              120.2224         estimate D2E/DX2                !
 ! A2    A(2,1,7)              119.5376         estimate D2E/DX2                !
 ! A3    A(6,1,7)              120.2399         estimate D2E/DX2                !
 ! A4    A(1,2,3)              119.3153         estimate D2E/DX2                !
 ! A5    A(1,2,8)              121.8904         estimate D2E/DX2                !
 ! A6    A(3,2,8)              118.7943         estimate D2E/DX2                !
 ! A7    A(2,3,4)              120.4609         estimate D2E/DX2                !
 ! A8    A(2,3,11)             120.3642         estimate D2E/DX2                !
 ! A9    A(4,3,11)             119.1749         estimate D2E/DX2                !
 ! A10   A(3,4,5)              120.4728         estimate D2E/DX2                !
 ! A11   A(3,4,12)             119.1798         estimate D2E/DX2                !
 ! A12   A(5,4,12)             120.3474         estimate D2E/DX2                !
 ! A13   A(4,5,6)              119.3167         estimate D2E/DX2                !
 ! A14   A(4,5,9)              118.7828         estimate D2E/DX2                !
 ! A15   A(6,5,9)              121.9005         estimate D2E/DX2                !
 ! A16   A(1,6,5)              120.212          estimate D2E/DX2                !
 ! A17   A(1,6,10)             120.249          estimate D2E/DX2                !
 ! A18   A(5,6,10)             119.5391         estimate D2E/DX2                !
 ! D1    D(6,1,2,3)              0.0            estimate D2E/DX2                !
 ! D2    D(6,1,2,8)            180.0            estimate D2E/DX2                !
 ! D3    D(7,1,2,3)            180.0            estimate D2E/DX2                !
 ! D4    D(7,1,2,8)              0.0            estimate D2E/DX2                !
 ! D5    D(2,1,6,5)              0.0            estimate D2E/DX2                !
 ! D6    D(2,1,6,10)           180.0            estimate D2E/DX2                !
 ! D7    D(7,1,6,5)            180.0            estimate D2E/DX2                !
 ! D8    D(7,1,6,10)             0.0            estimate D2E/DX2                !
 ! D9    D(1,2,3,4)              0.0            estimate D2E/DX2                !
 ! D10   D(1,2,3,11)           180.0            estimate D2E/DX2                !
 ! D11   D(8,2,3,4)            180.0            estimate D2E/DX2                !
 ! D12   D(8,2,3,11)             0.0            estimate D2E/DX2                !
 ! D13   D(2,3,4,5)              0.0            estimate D2E/DX2                !
 ! D14   D(2,3,4,12)           180.0            estimate D2E/DX2                !
 ! D15   D(11,3,4,5)           180.0            estimate D2E/DX2                !
 ! D16   D(11,3,4,12)            0.0            estimate D2E/DX2                !
 ! D17   D(3,4,5,6)              0.0            estimate D2E/DX2                !
 ! D18   D(3,4,5,9)            180.0            estimate D2E/DX2                !
 ! D19   D(12,4,5,6)           180.0            estimate D2E/DX2                !
 ! D20   D(12,4,5,9)             0.0            estimate D2E/DX2                !
 ! D21   D(4,5,6,1)              0.0            estimate D2E/DX2                !
 ! D22   D(4,5,6,10)           180.0            estimate D2E/DX2                !
 ! D23   D(9,5,6,1)            180.0            estimate D2E/DX2                !
 ! D24   D(9,5,6,10)             0.0            estimate D2E/DX2                !
 --------------------------------------------------------------------------------
 Trust Radius=3.00D-01 FncErr=1.00D-07 GrdErr=1.00D-06 EigMax=2.50D+02 EigMin=1.00D-04
 Number of steps in this run=     64 maximum allowed number of steps=    100.
 GradGradGradGradGradGradGradGradGradGradGradGradGradGradGradGradGradGrad

 Leave Link  103 at Wed Jan 29 15:36:09 2025, MaxMem=   104857600 cpu:               0.0 elap:               0.0
 (Enter /sw/cluster/pub/apps//g16/l202.exe)
                          Input orientation:                          
 ---------------------------------------------------------------------
 Center     Atomic      Atomic             Coordinates (Angstroms)
 Number     Number       Type             X           Y           Z
 ---------------------------------------------------------------------
      1          6           0        1.201202    0.690786    0.000000
      2          6           0        1.206528   -0.699794    0.000000
      3          6           0        0.003996   -1.381117    0.000000
      4          6           0       -1.197907   -0.687075    0.000000
      5          6           0       -1.209206    0.695019    0.000000
      6          6           0       -0.002380    1.385757    0.000000
      7          1           0        2.142364    1.228859    0.000000
      8          1           0        2.129171   -1.268984    0.000000
      9          1           0       -2.163585    1.209209    0.000000
     10          1           0       -0.007035    2.469856    0.000000
     11          9           0       -0.015338   -2.716531   -0.000000
     12          9           0       -2.344874   -1.371234    0.000000
 ---------------------------------------------------------------------
                    Distance matrix (angstroms):
                    1          2          3          4          5
     1  C    0.000000
     2  C    1.390590   0.000000
     3  C    2.392924   1.382131   0.000000
     4  C    2.766627   2.404469   1.387899   0.000000
     5  C    2.410412   2.789494   2.404621   1.382141   0.000000
     6  C    1.389818   2.410598   2.766882   2.392889   1.390521
     7  H    1.084117   2.143710   3.374107   3.850743   3.393820
     8  H    2.168369   1.084088   2.128132   3.377583   3.873251
     9  H    3.404489   3.873235   3.377601   2.128010   1.084080
    10  H    2.150564   3.394026   3.850989   3.374076   2.143656
    11  F    3.617980   2.358005   1.335554   2.348863   3.614415
    12  F    4.102021   3.614317   2.348890   1.335517   2.357783
                    6          7          8          9         10
     6  C    0.000000
     7  H    2.150476   0.000000
     8  H    3.404579   2.497878   0.000000
     9  H    2.168403   4.305994   4.956732   0.000000
    10  H    1.084108   2.481933   4.306077   2.497987   0.000000
    11  F    4.102309   4.496864   2.587337   4.475086   5.186393
    12  F    3.617772   5.186115   4.475213   2.586803   4.496606
                   11         12
    11  F    0.000000
    12  F    2.690085   0.000000
 Symmetry turned off by external request.
 Stoichiometry    C6H4F2(1-,2)
 Framework group  CS[SG(C6H4F2)]
 Deg. of freedom    21
 Full point group                 CS      NOp   2
 Rotational constants (GHZ):           3.2803792           2.2400921           1.3311094
 Leave Link  202 at Wed Jan 29 15:36:09 2025, MaxMem=   104857600 cpu:               0.0 elap:               0.0
 (Enter /sw/cluster/pub/apps//g16/l301.exe)
 Standard basis: 6-311++G(d,p) (5D, 7F)
 Ernie: Thresh=  0.10000D-02 Tol=  0.10000D-05 Strict=F.
   204 basis functions,   324 primitive gaussians,   212 cartesian basis functions
    30 alpha electrons       29 beta electrons
       nuclear repulsion energy       348.4945587271 Hartrees.
 IExCor= 1009 DFT=T Ex+Corr=PBE1PBE ExCW=0 ScaHFX=  0.250000
 ScaDFX=  0.750000  0.750000  1.000000  1.000000 ScalE2=  1.000000  1.000000
 IRadAn=      5 IRanWt=     -1 IRanGd=            0 ICorTp=0 IEmpDi=  4
 NAtoms=   12 NActive=   12 NUniq=   12 SFac= 1.00D+00 NAtFMM=   60 NAOKFM=F Big=F
 Integral buffers will be    131072 words long.
 Raffenetti 2 integral format.
 Two-electron integral symmetry is turned off.
 Leave Link  301 at Wed Jan 29 15:36:09 2025, MaxMem=   104857600 cpu:               0.0 elap:               0.0
 (Enter /sw/cluster/pub/apps//g16/l302.exe)
 NPDir=0 NMtPBC=     1 NCelOv=     1 NCel=       1 NClECP=     1 NCelD=      1
         NCelK=      1 NCelE2=     1 NClLst=     1 CellRange=     0.0.
 One-electron integrals computed using PRISM.
 NBasis=   204 RedAO= T EigKep=  1.71D-06  NBF=   204
 NBsUse=   204 1.00D-06 EigRej= -1.00D+00 NBFU=   204
 Precomputing XC quadrature grid using
 IXCGrd= 4 IRadAn=           5 IRanWt=          -1 IRanGd=           0 AccXCQ= 0.00D+00.
 Generated NRdTot=       0 NPtTot=           0 NUsed=           0 NTot=          32
 NSgBfM=   212   212   212   212   212 MxSgAt=    12 MxSgA2=    12.
 Leave Link  302 at Wed Jan 29 15:36:10 2025, MaxMem=   104857600 cpu:               0.1 elap:               0.2
 (Enter /sw/cluster/pub/apps//g16/l303.exe)
 DipDrv:  MaxL=1.
 Leave Link  303 at Wed Jan 29 15:36:10 2025, MaxMem=   104857600 cpu:               0.0 elap:               0.0
 (Enter /sw/cluster/pub/apps//g16/l401.exe)
 ExpMin= 3.60D-02 ExpMax= 1.14D+04 ExpMxC= 1.72D+03 IAcc=3 IRadAn=         5 AccDes= 0.00D+00
 Harris functional with IExCor= 1009 and IRadAn=       5 diagonalized for initial guess.
 HarFok:  IExCor= 1009 AccDes= 0.00D+00 IRadAn=         5 IDoV= 1 UseB2=F ITyADJ=14
 ICtDFT=  3500011 ScaDFX=  1.000000  1.000000  1.000000  1.000000
 FoFCou: FMM=F IPFlag=           0 FMFlag=      100000 FMFlg1=           0
         NFxFlg=           0 DoJE=T BraDBF=F KetDBF=T FulRan=T
         wScrn=  0.000000 ICntrl=       500 IOpCl=  0 I1Cent=   200000004 NGrid=           0
         NMat0=    1 NMatS0=      1 NMatT0=    0 NMatD0=    1 NMtDS0=    0 NMtDT0=    0
 Symmetry not used in FoFCou.
 Harris En= -430.592449591735    
 JPrj=0 DoOrth=F DoCkMO=F.
 Initial guess <Sx>= 0.0000 <Sy>= 0.0000 <Sz>= 0.5000 <S**2>= 0.7500 S= 0.5000
 Leave Link  401 at Wed Jan 29 15:36:11 2025, MaxMem=   104857600 cpu:               1.5 elap:               1.5
 (Enter /sw/cluster/pub/apps//g16/l502.exe)
 Two-electron integral symmetry not used.
 UHF open shell SCF:
 Using DIIS extrapolation, IDIIS=  1040.
 NGot=   104857600 LenX=   104764860 LenY=   104719475
 Requested convergence on RMS density matrix=1.00D-08 within 128 cycles.
 Requested convergence on MAX density matrix=1.00D-06.
 Requested convergence on             energy=1.00D-06.
 No special actions if energy rises.
 Fock matrices will be formed incrementally for  20 cycles.

 Cycle   1  Pass 1  IDiag  1:
 FoFJK:  IHMeth= 1 ICntrl=       0 DoSepK=F KAlg= 0 I1Cent=           0 FoldK=F
 IRaf= 970000000 NMat=       1 IRICut=       1 DoRegI=T DoRafI=F ISym2E= 0 IDoP0=0 IntGTp=1.
 FoFCou: FMM=F IPFlag=           0 FMFlag=      100000 FMFlg1=           0
         NFxFlg=           0 DoJE=F BraDBF=F KetDBF=F FulRan=T
         wScrn=  0.000000 ICntrl=         0 IOpCl=  1 I1Cent=           0 NGrid=           0
         NMat0=    1 NMatS0=      1 NMatT0=    0 NMatD0=    1 NMtDS0=    0 NMtDT0=    0
 Symmetry not used in FoFCou.
 E= -430.049981593705    
 DIIS: error= 3.98D-02 at cycle   1 NSaved=   1.
 NSaved= 1 IEnMin= 1 EnMin= -430.049981593705     IErMin= 1 ErrMin= 3.98D-02
 ErrMax= 3.98D-02  0.00D+00 EMaxC= 1.00D-01 BMatC= 1.10D+00 BMatP= 1.10D+00
 IDIUse=3 WtCom= 6.02D-01 WtEn= 3.98D-01
 Coeff-Com:  0.100D+01
 Coeff-En:   0.100D+01
 Coeff:      0.100D+01
 Gap=     0.076 Goal=   None    Shift=    0.000
 Gap=     0.310 Goal=   None    Shift=    0.000
 GapD=    0.076 DampG=0.500 DampE=0.500 DampFc=0.2500 IDamp=-1.
 Damping current iteration by 2.50D-01
 RMSDP=5.17D-01 MaxDP=4.61D+01              OVMax= 9.96D-01

 Cycle   2  Pass 1  IDiag  1:
 RMSU=  1.29D-01    CP:  1.01D+00
 E= -430.165266432932     Delta-E=       -0.115284839227 Rises=F Damp=T
 DIIS: error= 1.82D-02 at cycle   2 NSaved=   2.
 NSaved= 2 IEnMin= 2 EnMin= -430.165266432932     IErMin= 2 ErrMin= 1.82D-02
 ErrMax= 1.82D-02  0.00D+00 EMaxC= 1.00D-01 BMatC= 2.30D-01 BMatP= 1.10D+00
 IDIUse=3 WtCom= 8.18D-01 WtEn= 1.82D-01
 Coeff-Com: -0.636D+00 0.164D+01
 Coeff-En:   0.000D+00 0.100D+01
 Coeff:     -0.521D+00 0.152D+01
 Gap=     0.016 Goal=   None    Shift=    0.000
 Gap=     0.178 Goal=   None    Shift=    0.000
 RMSDP=4.08D-01 MaxDP=1.50D+01 DE=-1.15D-01 OVMax= 2.82D-01

 Cycle   3  Pass 1  IDiag  1:
 RMSU=  3.84D-01    CP:  1.23D+00  2.08D+00
 E= -430.332717943355     Delta-E=       -0.167451510423 Rises=F Damp=F
 DIIS: error= 1.11D-02 at cycle   3 NSaved=   3.
 NSaved= 3 IEnMin= 3 EnMin= -430.332717943355     IErMin= 3 ErrMin= 1.11D-02
 ErrMax= 1.11D-02  0.00D+00 EMaxC= 1.00D-01 BMatC= 6.05D-02 BMatP= 2.30D-01
 IDIUse=3 WtCom= 8.89D-01 WtEn= 1.11D-01
 Coeff-Com: -0.149D+00 0.561D+00 0.588D+00
 Coeff-En:   0.000D+00 0.000D+00 0.100D+01
 Coeff:     -0.133D+00 0.499D+00 0.634D+00
 Gap=     0.022 Goal=   None    Shift=    0.000
 Gap=     0.256 Goal=   None    Shift=    0.000
 RMSDP=1.83D-01 MaxDP=5.76D+00 DE=-1.67D-01 OVMax= 1.59D-01

 Cycle   4  Pass 1  IDiag  1:
 RMSU=  4.89D-02    CP:  1.06D+00  2.04D+00  5.42D-01
 E= -430.347185863178     Delta-E=       -0.014467919823 Rises=F Damp=F
 DIIS: error= 6.15D-03 at cycle   4 NSaved=   4.
 NSaved= 4 IEnMin= 4 EnMin= -430.347185863178     IErMin= 4 ErrMin= 6.15D-03
 ErrMax= 6.15D-03  0.00D+00 EMaxC= 1.00D-01 BMatC= 1.64D-02 BMatP= 6.05D-02
 IDIUse=3 WtCom= 9.38D-01 WtEn= 6.15D-02
 Coeff-Com:  0.653D-01-0.187D-01 0.350D+00 0.603D+00
 Coeff-En:   0.000D+00 0.000D+00 0.340D-01 0.966D+00
 Coeff:      0.613D-01-0.176D-01 0.331D+00 0.626D+00
 Gap=     0.027 Goal=   None    Shift=    0.000
 Gap=     0.254 Goal=   None    Shift=    0.000
 RMSDP=5.50D-02 MaxDP=4.32D+00 DE=-1.45D-02 OVMax= 4.56D-02

 Cycle   5  Pass 1  IDiag  1:
 RMSU=  7.95D-03    CP:  1.04D+00  1.68D+00  4.65D-01  8.96D-01
 E= -430.351351672777     Delta-E=       -0.004165809599 Rises=F Damp=F
 DIIS: error= 2.68D-03 at cycle   5 NSaved=   5.
 NSaved= 5 IEnMin= 5 EnMin= -430.351351672777     IErMin= 5 ErrMin= 2.68D-03
 ErrMax= 2.68D-03  0.00D+00 EMaxC= 1.00D-01 BMatC= 1.61D-03 BMatP= 1.64D-02
 IDIUse=3 WtCom= 9.73D-01 WtEn= 2.68D-02
 Coeff-Com:  0.310D-01-0.458D-01 0.651D-01 0.276D+00 0.673D+00
 Coeff-En:   0.000D+00 0.000D+00 0.000D+00 0.334D-02 0.997D+00
 Coeff:      0.301D-01-0.445D-01 0.633D-01 0.269D+00 0.682D+00
 Gap=     0.028 Goal=   None    Shift=    0.000
 Gap=     0.245 Goal=   None    Shift=    0.000
 RMSDP=3.06D-02 MaxDP=1.12D+00 DE=-4.17D-03 OVMax= 2.37D-02

 Cycle   6  Pass 1  IDiag  1:
 RMSU=  2.59D-03    CP:  1.02D+00  1.64D+00  3.87D-01  9.49D-01  1.31D+00
 E= -430.351777415866     Delta-E=       -0.000425743089 Rises=F Damp=F
 DIIS: error= 1.25D-03 at cycle   6 NSaved=   6.
 NSaved= 6 IEnMin= 6 EnMin= -430.351777415866     IErMin= 6 ErrMin= 1.25D-03
 ErrMax= 1.25D-03  0.00D+00 EMaxC= 1.00D-01 BMatC= 4.51D-04 BMatP= 1.61D-03
 IDIUse=3 WtCom= 9.87D-01 WtEn= 1.25D-02
 Coeff-Com:  0.350D-03-0.175D-02-0.275D-02 0.689D-01 0.394D+00 0.542D+00
 Coeff-En:   0.000D+00 0.000D+00 0.000D+00 0.000D+00 0.857D-01 0.914D+00
 Coeff:      0.346D-03-0.173D-02-0.272D-02 0.680D-01 0.390D+00 0.546D+00
 Gap=     0.028 Goal=   None    Shift=    0.000
 Gap=     0.245 Goal=   None    Shift=    0.000
 RMSDP=9.15D-03 MaxDP=3.58D-01 DE=-4.26D-04 OVMax= 6.13D-03

 Cycle   7  Pass 1  IDiag  1:
 RMSU=  6.87D-04    CP:  1.02D+00  1.62D+00  3.65D-01  9.50D-01  1.41D+00
                    CP:  1.44D+00
 E= -430.351890518850     Delta-E=       -0.000113102985 Rises=F Damp=F
 DIIS: error= 2.59D-04 at cycle   7 NSaved=   7.
 NSaved= 7 IEnMin= 7 EnMin= -430.351890518850     IErMin= 7 ErrMin= 2.59D-04
 ErrMax= 2.59D-04  0.00D+00 EMaxC= 1.00D-01 BMatC= 2.27D-05 BMatP= 4.51D-04
 IDIUse=3 WtCom= 9.97D-01 WtEn= 2.59D-03
 Coeff-Com: -0.481D-02 0.697D-02-0.589D-02-0.211D-01-0.110D-01 0.154D+00
 Coeff-Com:  0.882D+00
 Coeff-En:   0.000D+00 0.000D+00 0.000D+00 0.000D+00 0.000D+00 0.000D+00
 Coeff-En:   0.100D+01
 Coeff:     -0.480D-02 0.695D-02-0.588D-02-0.210D-01-0.110D-01 0.153D+00
 Coeff:      0.883D+00
 Gap=     0.028 Goal=   None    Shift=    0.000
 Gap=     0.245 Goal=   None    Shift=    0.000
 RMSDP=1.11D-02 MaxDP=4.27D-01 DE=-1.13D-04 OVMax= 8.29D-03

 Cycle   8  Pass 1  IDiag  1:
 RMSU=  2.56D-04    CP:  1.01D+00  1.61D+00  3.36D-01  9.59D-01  1.53D+00
                    CP:  1.95D+00  1.25D+00
 E= -430.351905783300     Delta-E=       -0.000015264450 Rises=F Damp=F
 DIIS: error= 1.24D-04 at cycle   8 NSaved=   8.
 NSaved= 8 IEnMin= 8 EnMin= -430.351905783300     IErMin= 8 ErrMin= 1.24D-04
 ErrMax= 1.24D-04  0.00D+00 EMaxC= 1.00D-01 BMatC= 3.95D-06 BMatP= 2.27D-05
 IDIUse=3 WtCom= 9.99D-01 WtEn= 1.24D-03
 Coeff-Com: -0.159D-02 0.302D-02-0.194D-02-0.172D-01-0.563D-01-0.158D-01
 Coeff-Com:  0.297D+00 0.793D+00
 Coeff-En:   0.000D+00 0.000D+00 0.000D+00 0.000D+00 0.000D+00 0.000D+00
 Coeff-En:   0.000D+00 0.100D+01
 Coeff:     -0.159D-02 0.301D-02-0.193D-02-0.171D-01-0.562D-01-0.158D-01
 Coeff:      0.296D+00 0.793D+00
 Gap=     0.028 Goal=   None    Shift=    0.000
 Gap=     0.245 Goal=   None    Shift=    0.000
 RMSDP=5.68D-03 MaxDP=2.20D-01 DE=-1.53D-05 OVMax= 4.61D-03

 Cycle   9  Pass 1  IDiag  1:
 RMSU=  7.84D-05    CP:  1.01D+00  1.61D+00  3.22D-01  9.63D-01  1.58D+00
                    CP:  2.22D+00  1.32D+00  1.79D+00
 E= -430.351909127702     Delta-E=       -0.000003344402 Rises=F Damp=F
 DIIS: error= 8.12D-05 at cycle   9 NSaved=   9.
 NSaved= 9 IEnMin= 9 EnMin= -430.351909127702     IErMin= 9 ErrMin= 8.12D-05
 ErrMax= 8.12D-05  0.00D+00 EMaxC= 1.00D-01 BMatC= 1.26D-06 BMatP= 3.95D-06
 IDIUse=1 WtCom= 1.00D+00 WtEn= 0.00D+00
 Coeff-Com:  0.512D-03-0.363D-03 0.239D-03-0.354D-02-0.239D-01-0.431D-01
 Coeff-Com: -0.720D-01 0.402D+00 0.740D+00
 Coeff:      0.512D-03-0.363D-03 0.239D-03-0.354D-02-0.239D-01-0.431D-01
 Coeff:     -0.720D-01 0.402D+00 0.740D+00
 Gap=     0.028 Goal=   None    Shift=    0.000
 Gap=     0.245 Goal=   None    Shift=    0.000
 RMSDP=3.46D-03 MaxDP=1.42D-01 DE=-3.34D-06 OVMax= 2.85D-03

 Cycle  10  Pass 1  IDiag  1:
 RMSU=  3.48D-05    CP:  1.01D+00  1.62D+00  3.13D-01  9.65D-01  1.61D+00
                    CP:  2.39D+00  1.36D+00  2.41D+00  1.65D+00
 E= -430.351910155356     Delta-E=       -0.000001027654 Rises=F Damp=F
 DIIS: error= 1.15D-05 at cycle  10 NSaved=  10.
 NSaved=10 IEnMin=10 EnMin= -430.351910155356     IErMin=10 ErrMin= 1.15D-05
 ErrMax= 1.15D-05  0.00D+00 EMaxC= 1.00D-01 BMatC= 5.22D-08 BMatP= 1.26D-06
 IDIUse=1 WtCom= 1.00D+00 WtEn= 0.00D+00
 Coeff-Com:  0.289D-03-0.485D-03 0.215D-03 0.174D-02 0.571D-02-0.169D-02
 Coeff-Com: -0.385D-01-0.808D-01 0.543D-02 0.111D+01
 Coeff:      0.289D-03-0.485D-03 0.215D-03 0.174D-02 0.571D-02-0.169D-02
 Coeff:     -0.385D-01-0.808D-01 0.543D-02 0.111D+01
 Gap=     0.028 Goal=   None    Shift=    0.000
 Gap=     0.245 Goal=   None    Shift=    0.000
 RMSDP=2.05D-03 MaxDP=8.54D-02 DE=-1.03D-06 OVMax= 1.85D-03

 Cycle  11  Pass 1  IDiag  1:
 RMSU=  2.14D-05    CP:  1.01D+00  1.62D+00  3.08D-01  9.67D-01  1.62D+00
                    CP:  2.49D+00  1.37D+00  2.83D+00  2.21D+00  1.96D+00
 E= -430.351910361396     Delta-E=       -0.000000206040 Rises=F Damp=F
 DIIS: error= 3.50D-06 at cycle  11 NSaved=  11.
 NSaved=11 IEnMin=11 EnMin= -430.351910361396     IErMin=11 ErrMin= 3.50D-06
 ErrMax= 3.50D-06  0.00D+00 EMaxC= 1.00D-01 BMatC= 9.93D-09 BMatP= 5.22D-08
 IDIUse=1 WtCom= 1.00D+00 WtEn= 0.00D+00
 Coeff-Com: -0.137D-03 0.231D-03 0.199D-03 0.237D-03 0.118D-02 0.336D-02
 Coeff-Com:  0.130D-01-0.213D-01-0.893D-01-0.112D+00 0.120D+01
 Coeff:     -0.137D-03 0.231D-03 0.199D-03 0.237D-03 0.118D-02 0.336D-02
 Coeff:      0.130D-01-0.213D-01-0.893D-01-0.112D+00 0.120D+01
 Gap=     0.028 Goal=   None    Shift=    0.000
 Gap=     0.245 Goal=   None    Shift=    0.000
 RMSDP=9.93D-04 MaxDP=4.19D-02 DE=-2.06D-07 OVMax= 9.23D-04

 Cycle  12  Pass 1  IDiag  1:
 RMSU=  2.14D-05    CP:  1.01D+00  1.63D+00  3.06D-01  9.68D-01  1.62D+00
                    CP:  2.53D+00  1.38D+00  3.00D+00  2.48D+00  2.84D+00
                    CP:  1.45D+00
 E= -430.351910407304     Delta-E=       -0.000000045907 Rises=F Damp=F
 DIIS: error= 3.38D-06 at cycle  12 NSaved=  12.
 NSaved=12 IEnMin=12 EnMin= -430.351910407304     IErMin=12 ErrMin= 3.38D-06
 ErrMax= 3.38D-06  0.00D+00 EMaxC= 1.00D-01 BMatC= 3.81D-09 BMatP= 9.93D-09
 IDIUse=1 WtCom= 1.00D+00 WtEn= 0.00D+00
 Coeff-Com: -0.814D-04 0.144D-03 0.756D-04-0.127D-03-0.353D-03 0.144D-02
 Coeff-Com:  0.105D-01 0.348D-02-0.410D-01-0.192D+00 0.543D+00 0.675D+00
 Coeff:     -0.814D-04 0.144D-03 0.756D-04-0.127D-03-0.353D-03 0.144D-02
 Coeff:      0.105D-01 0.348D-02-0.410D-01-0.192D+00 0.543D+00 0.675D+00
 Gap=     0.028 Goal=   None    Shift=    0.000
 Gap=     0.245 Goal=   None    Shift=    0.000
 RMSDP=3.50D-04 MaxDP=1.54D-02 DE=-4.59D-08 OVMax= 3.22D-04

 Cycle  13  Pass 1  IDiag  1:
 RMSU=  2.30D-05    CP:  1.01D+00  1.63D+00  3.05D-01  9.68D-01  1.62D+00
                    CP:  2.55D+00  1.38D+00  3.00D+00  2.61D+00  3.00D+00
                    CP:  2.29D+00  8.96D-01
 E= -430.351910415230     Delta-E=       -0.000000007926 Rises=F Damp=F
 DIIS: error= 2.91D-06 at cycle  13 NSaved=  13.
 NSaved=13 IEnMin=13 EnMin= -430.351910415230     IErMin=13 ErrMin= 2.91D-06
 ErrMax= 2.91D-06  0.00D+00 EMaxC= 1.00D-01 BMatC= 2.33D-09 BMatP= 3.81D-09
 IDIUse=1 WtCom= 1.00D+00 WtEn= 0.00D+00
 Coeff-Com:  0.299D-04-0.403D-04-0.614D-04-0.277D-03-0.115D-02-0.110D-02
 Coeff-Com:  0.628D-03 0.184D-01 0.216D-01-0.951D-01-0.305D+00 0.562D+00
 Coeff-Com:  0.800D+00
 Coeff:      0.299D-04-0.403D-04-0.614D-04-0.277D-03-0.115D-02-0.110D-02
 Coeff:      0.628D-03 0.184D-01 0.216D-01-0.951D-01-0.305D+00 0.562D+00
 Coeff:      0.800D+00
 Gap=     0.028 Goal=   None    Shift=    0.000
 Gap=     0.245 Goal=   None    Shift=    0.000
 RMSDP=3.97D-04 MaxDP=1.76D-02 DE=-7.93D-09 OVMax= 3.54D-04

 Cycle  14  Pass 1  IDiag  1:
 RMSU=  1.48D-05    CP:  1.00D+00  1.63D+00  3.04D-01  9.69D-01  1.63D+00
                    CP:  2.57D+00  1.39D+00  3.00D+00  2.70D+00  3.00D+00
                    CP:  2.43D+00  1.79D+00  1.55D+00
 E= -430.351910419987     Delta-E=       -0.000000004757 Rises=F Damp=F
 DIIS: error= 3.60D-07 at cycle  14 NSaved=  14.
 NSaved=14 IEnMin=14 EnMin= -430.351910419987     IErMin=14 ErrMin= 3.60D-07
 ErrMax= 3.60D-07  0.00D+00 EMaxC= 1.00D-01 BMatC= 6.50D-11 BMatP= 2.33D-09
 IDIUse=1 WtCom= 1.00D+00 WtEn= 0.00D+00
 Coeff-Com: -0.177D-05 0.337D-05 0.170D-05 0.480D-04 0.203D-03-0.605D-04
 Coeff-Com: -0.922D-03-0.276D-02-0.669D-04 0.342D-01-0.163D-01-0.193D+00
 Coeff-Com: -0.148D+00 0.133D+01
 Coeff:     -0.177D-05 0.337D-05 0.170D-05 0.480D-04 0.203D-03-0.605D-04
 Coeff:     -0.922D-03-0.276D-02-0.669D-04 0.342D-01-0.163D-01-0.193D+00
 Coeff:     -0.148D+00 0.133D+01
 Gap=     0.028 Goal=   None    Shift=    0.000
 Gap=     0.245 Goal=   None    Shift=    0.000
 RMSDP=1.66D-04 MaxDP=7.40D-03 DE=-4.76D-09 OVMax= 1.32D-04

 Cycle  15  Pass 1  IDiag  1:
 RMSU=  2.45D-06    CP:  1.00D+00  1.63D+00  3.04D-01  9.69D-01  1.63D+00
                    CP:  2.58D+00  1.39D+00  3.00D+00  2.73D+00  3.00D+00
                    CP:  2.59D+00  2.00D+00  1.87D+00  1.33D+00
 E= -430.351910420390     Delta-E=       -0.000000000404 Rises=F Damp=F
 DIIS: error= 6.83D-08 at cycle  15 NSaved=  15.
 NSaved=15 IEnMin=15 EnMin= -430.351910420390     IErMin=15 ErrMin= 6.83D-08
 ErrMax= 6.83D-08  0.00D+00 EMaxC= 1.00D-01 BMatC= 2.15D-12 BMatP= 6.50D-11
 IDIUse=1 WtCom= 1.00D+00 WtEn= 0.00D+00
 Coeff-Com: -0.946D-06 0.721D-06 0.345D-05 0.144D-04 0.455D-04 0.496D-04
 Coeff-Com: -0.651D-04-0.770D-03-0.104D-02 0.493D-02 0.164D-01-0.175D-01
 Coeff-Com: -0.339D-01-0.603D-01 0.109D+01
 Coeff:     -0.946D-06 0.721D-06 0.345D-05 0.144D-04 0.455D-04 0.496D-04
 Coeff:     -0.651D-04-0.770D-03-0.104D-02 0.493D-02 0.164D-01-0.175D-01
 Coeff:     -0.339D-01-0.603D-01 0.109D+01
 Gap=     0.028 Goal=   None    Shift=    0.000
 Gap=     0.245 Goal=   None    Shift=    0.000
 RMSDP=1.42D-05 MaxDP=6.98D-04 DE=-4.04D-10 OVMax= 8.31D-06

 Cycle  16  Pass 1  IDiag  1:
 RMSU=  7.13D-07    CP:  1.00D+00  1.63D+00  3.04D-01  9.69D-01  1.63D+00
                    CP:  2.58D+00  1.39D+00  3.00D+00  2.73D+00  3.00D+00
                    CP:  2.60D+00  2.01D+00  1.90D+00  1.36D+00  1.46D+00
 E= -430.351910420396     Delta-E=       -0.000000000005 Rises=F Damp=F
 DIIS: error= 3.02D-08 at cycle  16 NSaved=  16.
 NSaved=16 IEnMin=16 EnMin= -430.351910420396     IErMin=16 ErrMin= 3.02D-08
 ErrMax= 3.02D-08  0.00D+00 EMaxC= 1.00D-01 BMatC= 3.81D-13 BMatP= 2.15D-12
 IDIUse=1 WtCom= 1.00D+00 WtEn= 0.00D+00
 Coeff-Com: -0.274D-06 0.287D-06 0.139D-05-0.338D-06 0.982D-06 0.163D-04
 Coeff-Com:  0.512D-04-0.454D-04-0.294D-03-0.974D-03 0.368D-02 0.488D-02
 Coeff-Com:  0.141D-03-0.851D-01 0.161D+00 0.916D+00
 Coeff:     -0.274D-06 0.287D-06 0.139D-05-0.338D-06 0.982D-06 0.163D-04
 Coeff:      0.512D-04-0.454D-04-0.294D-03-0.974D-03 0.368D-02 0.488D-02
 Coeff:      0.141D-03-0.851D-01 0.161D+00 0.916D+00
 Gap=     0.028 Goal=   None    Shift=    0.000
 Gap=     0.245 Goal=   None    Shift=    0.000
 RMSDP=6.39D-06 MaxDP=3.12D-04 DE=-5.46D-12 OVMax= 4.60D-06

 Cycle  17  Pass 1  IDiag  1:
 RMSU=  7.76D-08    CP:  1.00D+00  1.63D+00  3.04D-01  9.69D-01  1.63D+00
                    CP:  2.58D+00  1.39D+00  3.00D+00  2.73D+00  3.00D+00
                    CP:  2.62D+00  2.02D+00  1.92D+00  1.37D+00  1.67D+00
                    CP:  1.77D+00
 E= -430.351910420392     Delta-E=        0.000000000004 Rises=F Damp=F
 DIIS: error= 1.58D-08 at cycle  17 NSaved=  17.
 NSaved=17 IEnMin=16 EnMin= -430.351910420396     IErMin=17 ErrMin= 1.58D-08
 ErrMax= 1.58D-08  0.00D+00 EMaxC= 1.00D-01 BMatC= 1.02D-13 BMatP= 3.81D-13
 IDIUse=1 WtCom= 1.00D+00 WtEn= 0.00D+00
 Coeff-Com: -0.578D-07 0.748D-07 0.424D-06-0.141D-05-0.396D-05 0.376D-05
 Coeff-Com:  0.335D-04 0.472D-04-0.559D-04-0.968D-03 0.482D-03 0.458D-02
 Coeff-Com:  0.310D-02-0.389D-01-0.159D-01 0.454D+00 0.593D+00
 Coeff:     -0.578D-07 0.748D-07 0.424D-06-0.141D-05-0.396D-05 0.376D-05
 Coeff:      0.335D-04 0.472D-04-0.559D-04-0.968D-03 0.482D-03 0.458D-02
 Coeff:      0.310D-02-0.389D-01-0.159D-01 0.454D+00 0.593D+00
 Gap=     0.028 Goal=   None    Shift=    0.000
 Gap=     0.245 Goal=   None    Shift=    0.000
 RMSDP=5.69D-07 MaxDP=4.01D-05 DE= 3.64D-12 OVMax= 3.66D-07

 Cycle  18  Pass 1  IDiag  1:
 RMSU=  1.39D-08    CP:  1.00D+00  1.63D+00  3.04D-01  9.69D-01  1.63D+00
                    CP:  2.58D+00  1.39D+00  3.00D+00  2.73D+00  3.00D+00
                    CP:  2.62D+00  2.02D+00  1.92D+00  1.37D+00  1.76D+00
                    CP:  2.17D+00  1.59D+00
 E= -430.351910420395     Delta-E=       -0.000000000003 Rises=F Damp=F
 DIIS: error= 5.19D-09 at cycle  18 NSaved=  18.
 NSaved=18 IEnMin=16 EnMin= -430.351910420396     IErMin=18 ErrMin= 5.19D-09
 ErrMax= 5.19D-09  0.00D+00 EMaxC= 1.00D-01 BMatC= 1.42D-14 BMatP= 1.02D-13
 IDIUse=1 WtCom= 1.00D+00 WtEn= 0.00D+00
 Coeff-Com:  0.339D-07-0.439D-07-0.142D-06-0.537D-06-0.238D-05-0.191D-05
 Coeff-Com:  0.509D-05 0.336D-04 0.417D-04-0.252D-03-0.519D-03 0.145D-02
 Coeff-Com:  0.153D-02-0.154D-03-0.399D-01 0.212D-02 0.258D+00 0.778D+00
 Coeff:      0.339D-07-0.439D-07-0.142D-06-0.537D-06-0.238D-05-0.191D-05
 Coeff:      0.509D-05 0.336D-04 0.417D-04-0.252D-03-0.519D-03 0.145D-02
 Coeff:      0.153D-02-0.154D-03-0.399D-01 0.212D-02 0.258D+00 0.778D+00
 Gap=     0.028 Goal=   None    Shift=    0.000
 Gap=     0.245 Goal=   None    Shift=    0.000
 RMSDP=5.05D-07 MaxDP=4.84D-05 DE=-3.18D-12 OVMax= 3.21D-07

 Cycle  19  Pass 1  IDiag  1:
 RMSU=  1.15D-08    CP:  1.00D+00  1.63D+00  3.04D-01  9.69D-01  1.63D+00
                    CP:  2.58D+00  1.39D+00  3.00D+00  2.73D+00  3.00D+00
                    CP:  2.63D+00  2.02D+00  1.93D+00  1.37D+00  1.87D+00
                    CP:  2.63D+00  2.34D+00  2.34D+00
 E= -430.351910420394     Delta-E=        0.000000000001 Rises=F Damp=F
 DIIS: error= 8.73D-10 at cycle  19 NSaved=  19.
 NSaved=19 IEnMin=16 EnMin= -430.351910420396     IErMin=19 ErrMin= 8.73D-10
 ErrMax= 8.73D-10  0.00D+00 EMaxC= 1.00D-01 BMatC= 6.06D-16 BMatP= 1.42D-14
 IDIUse=1 WtCom= 1.00D+00 WtEn= 0.00D+00
 Large coefficients: NSaved= 19 BigCof=    0.00 CofMax=   10.00 Det=-2.65D-15
 Inversion failed.  Reducing to 18 matrices.
 Large coefficients: NSaved= 18 BigCof=    0.00 CofMax=   10.00 Det=-4.85D-15
 Inversion failed.  Reducing to 17 matrices.
 Large coefficients: NSaved= 17 BigCof=    0.00 CofMax=   10.00 Det=-4.89D-15
 Inversion failed.  Reducing to 16 matrices.
 Large coefficients: NSaved= 16 BigCof=    0.00 CofMax=   10.00 Det=-5.18D-15
 Inversion failed.  Reducing to 15 matrices.
 Coeff-Com: -0.989D-07-0.240D-06 0.159D-06-0.231D-06 0.112D-05 0.106D-04
 Coeff-Com: -0.670D-05-0.140D-03-0.928D-04 0.130D-02 0.482D-03-0.254D-01
 Coeff-Com: -0.433D-01 0.177D-01 0.105D+01
 Coeff:     -0.989D-07-0.240D-06 0.159D-06-0.231D-06 0.112D-05 0.106D-04
 Coeff:     -0.670D-05-0.140D-03-0.928D-04 0.130D-02 0.482D-03-0.254D-01
 Coeff:     -0.433D-01 0.177D-01 0.105D+01
 Gap=     0.028 Goal=   None    Shift=    0.000
 Gap=     0.245 Goal=   None    Shift=    0.000
 RMSDP=3.77D-07 MaxDP=3.47D-05 DE= 9.09D-13 OVMax= 1.82D-07

 Cycle  20  Pass 1  IDiag  1:
 RMSU=  1.73D-08    CP:  1.00D+00  1.63D+00  3.04D-01  9.69D-01  1.63D+00
                    CP:  2.58D+00  1.39D+00  3.00D+00  2.73D+00  3.00D+00
                    CP:  2.63D+00  2.02D+00  1.93D+00  1.37D+00  1.96D+00
                    CP:  3.00D+00  3.00D+00  3.00D+00  1.68D+00
 E= -430.351910420396     Delta-E=       -0.000000000002 Rises=F Damp=F
 DIIS: error= 1.37D-09 at cycle  20 NSaved=  16.
 NSaved=16 IEnMin=16 EnMin= -430.351910420396     IErMin=15 ErrMin= 8.73D-10
 ErrMax= 1.37D-09  0.00D+00 EMaxC= 1.00D-01 BMatC= 3.59D-16 BMatP= 6.06D-16
 IDIUse=1 WtCom= 1.00D+00 WtEn= 0.00D+00
 Large coefficients: NSaved= 16 BigCof=    0.00 CofMax=   10.00 Det=-4.75D-16
 Inversion failed.  Reducing to 15 matrices.
 Coeff-Com: -0.200D-06-0.671D-06-0.920D-06 0.133D-05 0.297D-04-0.938D-05
 Coeff-Com: -0.172D-03-0.236D-03 0.131D-02 0.314D-02-0.155D-01-0.515D-01
 Coeff-Com: -0.766D-01 0.403D+00 0.737D+00
 Coeff:     -0.200D-06-0.671D-06-0.920D-06 0.133D-05 0.297D-04-0.938D-05
 Coeff:     -0.172D-03-0.236D-03 0.131D-02 0.314D-02-0.155D-01-0.515D-01
 Coeff:     -0.766D-01 0.403D+00 0.737D+00
 Gap=     0.028 Goal=   None    Shift=    0.000
 Gap=     0.245 Goal=   None    Shift=    0.000
 RMSDP=2.25D-07 MaxDP=2.07D-05 DE=-1.82D-12 OVMax= 7.59D-08

 Cycle  21  Pass 1  IDiag  1:
 Restarting incremental Fock formation.
 E= -430.351910420395     Delta-E=        0.000000000001 Rises=F Damp=F
 DIIS: error= 6.00D-10 at cycle  21 NSaved=  16.
 NSaved=16 IEnMin=15 EnMin= -430.351910420396     IErMin=16 ErrMin= 6.00D-10
 ErrMax= 6.00D-10  0.00D+00 EMaxC= 1.00D-01 BMatC= 7.89D-17 BMatP= 3.59D-16
 IDIUse=1 WtCom= 1.00D+00 WtEn= 0.00D+00
 Large coefficients: NSaved= 16 BigCof=    0.00 CofMax=   10.00 Det=-9.28D-17
 Inversion failed.  Reducing to 15 matrices.
 Coeff-Com: -0.168D-06 0.561D-06 0.396D-06-0.155D-05-0.130D-04 0.539D-04
 Coeff-Com:  0.438D-05-0.447D-03 0.413D-03 0.929D-02-0.223D-02-0.339D-01
 Coeff-Com: -0.981D-01-0.166D+00 0.129D+01
 Coeff:     -0.168D-06 0.561D-06 0.396D-06-0.155D-05-0.130D-04 0.539D-04
 Coeff:      0.438D-05-0.447D-03 0.413D-03 0.929D-02-0.223D-02-0.339D-01
 Coeff:     -0.981D-01-0.166D+00 0.129D+01
 Gap=     0.028 Goal=   None    Shift=    0.000
 Gap=     0.245 Goal=   None    Shift=    0.000
 RMSDP=2.48D-07 MaxDP=2.31D-05 DE= 9.09D-13 OVMax= 9.20D-08

 Cycle  22  Pass 1  IDiag  1:
 RMSU=  2.48D-07    CP:  1.00D+00
 E= -430.351910420396     Delta-E=       -0.000000000001 Rises=F Damp=F
 DIIS: error= 5.07D-10 at cycle  22 NSaved=  16.
 NSaved=16 IEnMin=14 EnMin= -430.351910420396     IErMin=16 ErrMin= 5.07D-10
 ErrMax= 5.07D-10  0.00D+00 EMaxC= 1.00D-01 BMatC= 4.52D-17 BMatP= 7.89D-17
 IDIUse=1 WtCom= 1.00D+00 WtEn= 0.00D+00
 Large coefficients: NSaved= 16 BigCof=    0.00 CofMax=   10.00 Det=-2.92D-17
 Inversion failed.  Reducing to 15 matrices.
 Coeff-Com:  0.536D-06-0.209D-06-0.933D-05 0.310D-05 0.744D-04 0.492D-04
 Coeff-Com: -0.592D-03-0.652D-03 0.856D-02 0.132D-01 0.113D-01-0.964D-01
 Coeff-Com: -0.481D+00 0.514D+00 0.103D+01
 Coeff:      0.536D-06-0.209D-06-0.933D-05 0.310D-05 0.744D-04 0.492D-04
 Coeff:     -0.592D-03-0.652D-03 0.856D-02 0.132D-01 0.113D-01-0.964D-01
 Coeff:     -0.481D+00 0.514D+00 0.103D+01
 Gap=     0.028 Goal=   None    Shift=    0.000
 Gap=     0.245 Goal=   None    Shift=    0.000
 RMSDP=1.93D-07 MaxDP=1.78D-05 DE=-5.68D-13 OVMax= 6.93D-08

 Cycle  23  Pass 1  IDiag  1:
 RMSU=  1.06D-08    CP:  1.00D+00  1.78D+00
 E= -430.351910420394     Delta-E=        0.000000000002 Rises=F Damp=F
 DIIS: error= 2.49D-10 at cycle  23 NSaved=  16.
 NSaved=16 IEnMin=13 EnMin= -430.351910420396     IErMin=16 ErrMin= 2.49D-10
 ErrMax= 2.49D-10  0.00D+00 EMaxC= 1.00D-01 BMatC= 1.41D-17 BMatP= 4.52D-17
 IDIUse=1 WtCom= 1.00D+00 WtEn= 0.00D+00
 Large coefficients: NSaved= 16 BigCof=    0.00 CofMax=   10.00 Det=-1.33D-17
 Inversion failed.  Reducing to 15 matrices.
 Coeff-Com: -0.177D-06-0.385D-05 0.361D-05 0.250D-04 0.105D-04-0.169D-03
 Coeff-Com: -0.365D-03 0.129D-02 0.537D-02 0.149D-01 0.897D-02-0.247D+00
 Coeff-Com: -0.131D+00 0.457D+00 0.892D+00
 Coeff:     -0.177D-06-0.385D-05 0.361D-05 0.250D-04 0.105D-04-0.169D-03
 Coeff:     -0.365D-03 0.129D-02 0.537D-02 0.149D-01 0.897D-02-0.247D+00
 Coeff:     -0.131D+00 0.457D+00 0.892D+00
 Gap=     0.028 Goal=   None    Shift=    0.000
 Gap=     0.245 Goal=   None    Shift=    0.000
 RMSDP=1.18D-07 MaxDP=1.06D-05 DE= 1.59D-12 OVMax= 4.07D-08

 Cycle  24  Pass 1  IDiag  1:
 RMSU=  8.83D-10    CP:  1.00D+00  2.25D+00  2.51D+00
 E= -430.351910420394     Delta-E=        0.000000000000 Rises=F Damp=F
 DIIS: error= 8.81D-11 at cycle  24 NSaved=  16.
 NSaved=16 IEnMin=12 EnMin= -430.351910420396     IErMin=16 ErrMin= 8.81D-11
 ErrMax= 8.81D-11  0.00D+00 EMaxC= 1.00D-01 BMatC= 2.53D-18 BMatP= 1.41D-17
 IDIUse=1 WtCom= 1.00D+00 WtEn= 0.00D+00
 Large coefficients: NSaved= 16 BigCof=    0.00 CofMax=   10.00 Det=-5.57D-18
 Inversion failed.  Reducing to 15 matrices.
 Coeff-Com:  0.593D-06-0.158D-05-0.135D-04-0.120D-04 0.146D-03-0.127D-03
 Coeff-Com: -0.166D-02-0.245D-02 0.467D-03 0.445D-01 0.239D-01-0.201D+00
 Coeff-Com: -0.113D+00 0.312D+00 0.938D+00
 Coeff:      0.593D-06-0.158D-05-0.135D-04-0.120D-04 0.146D-03-0.127D-03
 Coeff:     -0.166D-02-0.245D-02 0.467D-03 0.445D-01 0.239D-01-0.201D+00
 Coeff:     -0.113D+00 0.312D+00 0.938D+00
 Gap=     0.028 Goal=   None    Shift=    0.000
 Gap=     0.245 Goal=   None    Shift=    0.000
 RMSDP=5.79D-08 MaxDP=5.25D-06 DE= 4.55D-13 OVMax= 1.97D-08

 Cycle  25  Pass 1  IDiag  1:
 RMSU=  3.87D-09    CP:  1.00D+00  2.48D+00  3.00D+00  1.35D+00
 E= -430.351910420397     Delta-E=       -0.000000000003 Rises=F Damp=F
 DIIS: error= 3.99D-11 at cycle  25 NSaved=  16.
 NSaved=16 IEnMin=16 EnMin= -430.351910420397     IErMin=16 ErrMin= 3.99D-11
 ErrMax= 3.99D-11  0.00D+00 EMaxC= 1.00D-01 BMatC= 4.45D-19 BMatP= 2.53D-18
 IDIUse=1 WtCom= 1.00D+00 WtEn= 0.00D+00
 Large coefficients: NSaved= 16 BigCof=    0.00 CofMax=   10.00 Det=-1.58D-18
 Inversion failed.  Reducing to 15 matrices.
 Coeff-Com: -0.497D-06-0.496D-05-0.348D-05 0.485D-04-0.216D-05-0.700D-03
 Coeff-Com: -0.140D-02-0.120D-02 0.169D-01 0.345D-01-0.453D-01-0.110D+00
 Coeff-Com: -0.131D-01 0.384D+00 0.736D+00
 Coeff:     -0.497D-06-0.496D-05-0.348D-05 0.485D-04-0.216D-05-0.700D-03
 Coeff:     -0.140D-02-0.120D-02 0.169D-01 0.345D-01-0.453D-01-0.110D+00
 Coeff:     -0.131D-01 0.384D+00 0.736D+00
 Gap=     0.028 Goal=   None    Shift=    0.000
 Gap=     0.245 Goal=   None    Shift=    0.000
 RMSDP=9.61D-09 MaxDP=9.06D-07 DE=-3.07D-12 OVMax= 3.57D-09

 SCF Done:  E(UPBE1PBE) =  -430.351910420     A.U. after   25 cycles
            NFock= 25  Conv=0.96D-08     -V/T= 2.0029
 <Sx>= 0.0000 <Sy>= 0.0000 <Sz>= 0.5000 <S**2>= 0.7501 S= 0.5000
 <L.S>=  0.00000000000    
 KE= 4.291041629806D+02 PE=-1.716038602996D+03 EE= 5.080879708682D+02
 Annihilation of the first spin contaminant:
 S**2 before annihilation     0.7501,   after     0.7500
 Leave Link  502 at Wed Jan 29 15:38:14 2025, MaxMem=   104857600 cpu:             122.1 elap:             122.3
 (Enter /sw/cluster/pub/apps//g16/l601.exe)
 Copying SCF densities to generalized density rwf, IOpCl= 1 IROHF=0.

 **********************************************************************

            Population analysis using the SCF density.

 **********************************************************************

 Alpha  occ. eigenvalues --  -24.68979 -24.68978 -10.21247 -10.21186 -10.13110
 Alpha  occ. eigenvalues --  -10.13107 -10.12299 -10.12238  -1.18217  -1.16844
 Alpha  occ. eigenvalues --   -0.79416  -0.68241  -0.67406  -0.55603  -0.54324
 Alpha  occ. eigenvalues --   -0.48654  -0.44893  -0.43076  -0.41286  -0.38041
 Alpha  occ. eigenvalues --   -0.37958  -0.35546  -0.35271  -0.31515  -0.27816
 Alpha  occ. eigenvalues --   -0.27253  -0.26445  -0.16860  -0.15473   0.05177
 Alpha virt. eigenvalues --    0.07945   0.08988   0.09213   0.10366   0.11125
 Alpha virt. eigenvalues --    0.11867   0.15942   0.16043   0.17834   0.18478
 Alpha virt. eigenvalues --    0.18961   0.19949   0.20266   0.21002   0.21673
 Alpha virt. eigenvalues --    0.22211   0.22523   0.22979   0.23235   0.24053
 Alpha virt. eigenvalues --    0.24093   0.24517   0.25069   0.26180   0.28261
 Alpha virt. eigenvalues --    0.28603   0.29339   0.30424   0.31574   0.33392
 Alpha virt. eigenvalues --    0.33904   0.35241   0.36734   0.38920   0.38947
 Alpha virt. eigenvalues --    0.40377   0.40622   0.42895   0.43539   0.45157
 Alpha virt. eigenvalues --    0.46314   0.48084   0.48258   0.48516   0.50776
 Alpha virt. eigenvalues --    0.53547   0.54368   0.61300   0.61766   0.62720
 Alpha virt. eigenvalues --    0.63014   0.64850   0.67632   0.68597   0.68659
 Alpha virt. eigenvalues --    0.70010   0.70914   0.70989   0.72965   0.74555
 Alpha virt. eigenvalues --    0.80628   0.80810   0.83725   0.86027   0.89439
 Alpha virt. eigenvalues --    0.91051   0.91872   0.96478   0.96627   0.98189
 Alpha virt. eigenvalues --    0.99319   1.00560   1.03315   1.05474   1.09119
 Alpha virt. eigenvalues --    1.09748   1.11762   1.12931   1.17270   1.19862
 Alpha virt. eigenvalues --    1.22357   1.26382   1.30474   1.40863   1.43501
 Alpha virt. eigenvalues --    1.51594   1.52727   1.55911   1.56190   1.57002
 Alpha virt. eigenvalues --    1.62531   1.64183   1.65212   1.67040   1.68515
 Alpha virt. eigenvalues --    1.68611   1.71400   1.76050   1.77554   1.80495
 Alpha virt. eigenvalues --    1.83650   1.86049   1.91665   1.96488   2.01720
 Alpha virt. eigenvalues --    2.02070   2.02653   2.02668   2.07501   2.07883
 Alpha virt. eigenvalues --    2.12476   2.13973   2.15619   2.16152   2.23734
 Alpha virt. eigenvalues --    2.27019   2.37203   2.37534   2.43975   2.44818
 Alpha virt. eigenvalues --    2.55668   2.60009   2.68362   2.71709   2.74916
 Alpha virt. eigenvalues --    2.82795   2.84406   2.86537   2.88752   2.89848
 Alpha virt. eigenvalues --    2.90728   2.91272   2.95239   3.00341   3.00344
 Alpha virt. eigenvalues --    3.01462   3.20917   3.26460   3.28157   3.35022
 Alpha virt. eigenvalues --    3.48007   3.51067   3.64074   3.66522   3.85456
 Alpha virt. eigenvalues --    3.87254   3.88942   3.90454   3.97232   4.01235
 Alpha virt. eigenvalues --    4.08206   4.13975   4.16928   4.18606   4.23400
 Alpha virt. eigenvalues --    4.27292   4.33884   4.91975   4.98975   5.07322
 Alpha virt. eigenvalues --    6.43815   6.49393   6.54586   6.64101   6.81941
 Alpha virt. eigenvalues --    6.99949  23.72282  24.13396  24.14397  24.27734
 Alpha virt. eigenvalues --   24.31131  24.41208  67.03220  67.08139
  Beta  occ. eigenvalues --  -24.68976 -24.68975 -10.21246 -10.21186 -10.13094
  Beta  occ. eigenvalues --  -10.13092 -10.12270 -10.12209  -1.18211  -1.16839
  Beta  occ. eigenvalues --   -0.79378  -0.68200  -0.67356  -0.55553  -0.54279
  Beta  occ. eigenvalues --   -0.48612  -0.44838  -0.43027  -0.41283  -0.38041
  Beta  occ. eigenvalues --   -0.37838  -0.35472  -0.35248  -0.31475  -0.27719
  Beta  occ. eigenvalues --   -0.27219  -0.26374  -0.16834  -0.15450
  Beta virt. eigenvalues --    0.09038   0.09788   0.10405   0.10656   0.11230
  Beta virt. eigenvalues --    0.13435   0.13797   0.16338   0.17709   0.18246
  Beta virt. eigenvalues --    0.18821   0.19305   0.20501   0.21475   0.22348
  Beta virt. eigenvalues --    0.22539   0.22978   0.23335   0.23507   0.24685
  Beta virt. eigenvalues --    0.24870   0.24997   0.25131   0.25964   0.26487
  Beta virt. eigenvalues --    0.29495   0.29826   0.29926   0.30936   0.31875
  Beta virt. eigenvalues --    0.33956   0.35644   0.35832   0.37278   0.39212
  Beta virt. eigenvalues --    0.39607   0.41042   0.41380   0.43243   0.44295
  Beta virt. eigenvalues --    0.45504   0.46980   0.48592   0.48603   0.48959
  Beta virt. eigenvalues --    0.51204   0.53860   0.54713   0.61493   0.62062
  Beta virt. eigenvalues --    0.62898   0.63221   0.65094   0.67844   0.68805
  Beta virt. eigenvalues --    0.68867   0.70157   0.71048   0.71160   0.73202
  Beta virt. eigenvalues --    0.74771   0.80846   0.81017   0.83899   0.86387
  Beta virt. eigenvalues --    0.89714   0.91327   0.92043   0.96690   0.96780
  Beta virt. eigenvalues --    0.98514   0.99650   1.00883   1.03480   1.05616
  Beta virt. eigenvalues --    1.09168   1.09764   1.11871   1.13061   1.17407
  Beta virt. eigenvalues --    1.19909   1.22402   1.26405   1.30504   1.41053
  Beta virt. eigenvalues --    1.43619   1.51664   1.52842   1.55980   1.56282
  Beta virt. eigenvalues --    1.57133   1.62637   1.64300   1.65314   1.67123
  Beta virt. eigenvalues --    1.68608   1.68673   1.71487   1.76123   1.77628
  Beta virt. eigenvalues --    1.80556   1.83704   1.86198   1.91743   1.96603
  Beta virt. eigenvalues --    2.01780   2.02116   2.02700   2.02799   2.07570
  Beta virt. eigenvalues --    2.07983   2.12541   2.14058   2.15705   2.16253
  Beta virt. eigenvalues --    2.23774   2.27078   2.37302   2.37581   2.44002
  Beta virt. eigenvalues --    2.44877   2.55821   2.60105   2.68438   2.71801
  Beta virt. eigenvalues --    2.74946   2.82962   2.84561   2.86718   2.88802
  Beta virt. eigenvalues --    2.90003   2.90763   2.91400   2.95324   3.00383
  Beta virt. eigenvalues --    3.00434   3.01502   3.20948   3.26493   3.28174
  Beta virt. eigenvalues --    3.35060   3.48049   3.51112   3.64164   3.66580
  Beta virt. eigenvalues --    3.85504   3.87272   3.88941   3.90453   3.97235
  Beta virt. eigenvalues --    4.01271   4.08213   4.13982   4.16939   4.18719
  Beta virt. eigenvalues --    4.23463   4.27322   4.33906   4.91996   4.98993
  Beta virt. eigenvalues --    5.07342   6.43827   6.49409   6.54599   6.64115
  Beta virt. eigenvalues --    6.81965   6.99973  23.72296  24.13417  24.14408
  Beta virt. eigenvalues --   24.27752  24.31150  24.41231  67.03222  67.08142
          Condensed to atoms (all electrons):
               1          2          3          4          5          6
     1  C   29.885710  -2.358371  -1.879522  -1.467122  -0.515024   9.158097
     2  C   -2.358371  13.511640  -2.480347  -1.689378  -1.406709  -0.550091
     3  C   -1.879522  -2.480347  11.941583  -1.749685  -1.695265  -1.442313
     4  C   -1.467122  -1.689378  -1.749685  11.958910  -2.504600  -1.894528
     5  C   -0.515024  -1.406709  -1.695265  -2.504600  13.539776  -2.304471
     6  C    9.158097  -0.550091  -1.442313  -1.894528  -2.304471  29.729782
     7  H  -12.811113   0.904972   1.368206   0.332431   1.461229  -7.737158
     8  H   -5.889223  -1.105776   1.593245  -0.027872   0.101570  -1.699650
     9  H   -1.717988   0.113753  -0.032853   1.604022  -1.126599  -5.860952
    10  H   -7.790759   1.485705   0.323407   1.384110   0.875949 -12.781292
    11  F   -0.180530  -0.549418   0.844615  -0.320719  -0.101762  -0.119216
    12  F   -0.120924  -0.100208  -0.321314   0.846002  -0.552072  -0.178852
               7          8          9         10         11         12
     1  C  -12.811113  -5.889223  -1.717988  -7.790759  -0.180530  -0.120924
     2  C    0.904972  -1.105776   0.113753   1.485705  -0.549418  -0.100208
     3  C    1.368206   1.593245  -0.032853   0.323407   0.844615  -0.321314
     4  C    0.332431  -0.027872   1.604022   1.384110  -0.320719   0.846002
     5  C    1.461229   0.101570  -1.126599   0.875949  -0.101762  -0.552072
     6  C   -7.737158  -1.699650  -5.860952 -12.781292  -0.119216  -0.178852
     7  H    8.803924   3.111219   1.336346   5.399877   0.104586   0.060312
     8  H    3.111219   3.286534   0.518077   1.339190   0.129697   0.057668
     9  H    1.336346   0.518077   3.281160   3.111814   0.057570   0.129663
    10  H    5.399877   1.339190   3.111814   8.823726   0.060329   0.104798
    11  F    0.104586   0.129697   0.057570   0.060329   9.234307   0.029525
    12  F    0.060312   0.057668   0.129663   0.104798   0.029525   9.234329
          Atomic-Atomic Spin Densities.
               1          2          3          4          5          6
     1  C   22.371609  -0.908000  -2.730121  -0.256453  -2.385303  10.739965
     2  C   -0.908000   3.458093  -1.814526   0.121049   0.902095  -2.420543
     3  C   -2.730121  -1.814526   1.639123  -0.316428   0.115876  -0.231987
     4  C   -0.256453   0.121049  -0.316428   1.657076  -1.838725  -2.745255
     5  C   -2.385303   0.902095   0.115876  -1.838725   3.484013  -0.853051
     6  C   10.739965  -2.420543  -0.231987  -2.745255  -0.853051  22.214990
     7  H  -13.257352   1.039789   1.299332   0.334860   1.403369  -7.619564
     8  H   -5.839824  -1.645672   1.745805   0.029798   0.137459  -1.763426
     9  H   -1.781777   0.149639   0.024845   1.756610  -1.666579  -5.811522
    10  H   -7.673202   1.427836   0.325846   1.315220   1.010812 -13.227537
    11  F   -0.223841  -0.231799   0.150450   0.029259  -0.078790  -0.083061
    12  F   -0.084743  -0.077277   0.028603   0.151789  -0.234288  -0.222201
               7          8          9         10         11         12
     1  C  -13.257352  -5.839824  -1.781777  -7.673202  -0.223841  -0.084743
     2  C    1.039789  -1.645672   0.149639   1.427836  -0.231799  -0.077277
     3  C    1.299332   1.745805   0.024845   0.325846   0.150450   0.028603
     4  C    0.334860   0.029798   1.756610   1.315220   0.029259   0.151789
     5  C    1.403369   0.137459  -1.666579   1.010812  -0.078790  -0.234288
     6  C   -7.619564  -1.763426  -5.811522 -13.227537  -0.083061  -0.222201
     7  H    8.388504   3.118094   1.334190   5.403922   0.102583   0.060537
     8  H    3.118094   2.822608   0.518299   1.337035   0.157308   0.058117
     9  H    1.334190   0.518299   2.817227   3.118689   0.058020   0.157290
    10  H    5.403922   1.337035   3.118689   8.408344   0.060554   0.102793
    11  F    0.102583   0.157308   0.058020   0.060554   0.044980   0.019308
    12  F    0.060537   0.058117   0.157290   0.102793   0.019308   0.045043
 Mulliken charges and spin densities:
               1          2
     1  C    1.686770  -2.029041
     2  C    0.224226   0.000683
     3  C   -0.469757   0.236818
     4  C   -0.471570   0.238799
     5  C    0.227979  -0.003112
     6  C    1.680644  -2.023191
     7  H   -1.334830   1.608263
     8  H   -0.414679   0.675601
     9  H   -0.414014   0.674930
    10  H   -1.336856   1.610311
    11  F   -0.188985   0.004969
    12  F   -0.188927   0.004972
 Sum of Mulliken charges =  -1.00000   1.00000
 Mulliken charges and spin densities with hydrogens summed into heavy atoms:
               1          2
     1  C    0.351939  -0.420779
     2  C   -0.190453   0.676284
     3  C   -0.469757   0.236818
     4  C   -0.471570   0.238799
     5  C   -0.186035   0.671817
     6  C    0.343788  -0.412880
    11  F   -0.188985   0.004969
    12  F   -0.188927   0.004972
 Electronic spatial extent (au):  <R**2>=            995.4952
 Charge=             -1.0000 electrons
 Dipole moment (field-independent basis, Debye):
    X=             -3.7604    Y=             -6.5154    Z=              0.0000  Tot=              7.5227
 Quadrupole moment (field-independent basis, Debye-Ang):
   XX=            -90.5561   YY=            -96.1342   ZZ=            -63.9406
   XY=             -4.8184   XZ=              0.0000   YZ=              0.0000
 Traceless Quadrupole moment (field-independent basis, Debye-Ang):
   XX=             -7.0125   YY=            -12.5905   ZZ=             19.6030
   XY=             -4.8184   XZ=              0.0000   YZ=              0.0000
 Octapole moment (field-independent basis, Debye-Ang**2):
  XXX=            -62.4157  YYY=            -99.7490  ZZZ=             -0.0000  XYY=            -14.3263
  XXY=            -33.2287  XXZ=             -0.0000  XZZ=             -8.4392  YZZ=            -14.6240
  YYZ=              0.0000  XYZ=              0.0000
 Hexadecapole moment (field-independent basis, Debye-Ang**3):
 XXXX=          -1376.3022 YYYY=          -1566.6328 ZZZZ=           -215.7256 XXXY=            -85.7413
 XXXZ=              0.0000 YYYX=            -78.6326 YYYZ=              0.0000 ZZZX=              0.0000
 ZZZY=              0.0000 XXYY=           -487.7223 XXZZ=           -222.2635 YYZZ=           -243.6825
 XXYZ=              0.0000 YYXZ=              0.0000 ZZXY=            -18.4969
 N-N= 3.484945587271D+02 E-N=-1.716038602998D+03  KE= 4.291041629806D+02
                          Isotropic Fermi Contact Couplings
        Atom                 a.u.       MegaHertz       Gauss      10(-4) cm-1
     1  C(13)              0.01621      18.22602       6.50350       6.07955
     2  C(13)              0.01152      12.95234       4.62172       4.32044
     3  C(13)              0.00240       2.69317       0.96099       0.89834
     4  C(13)              0.00240       2.69331       0.96104       0.89839
     5  C(13)              0.01152      12.94972       4.62078       4.31956
     6  C(13)              0.01622      18.23826       6.50786       6.08363
     7  H(1)              -0.00069      -3.09317      -1.10372      -1.03177
     8  H(1)              -0.00036      -1.60406      -0.57237      -0.53506
     9  H(1)              -0.00036      -1.60382      -0.57228      -0.53498
    10  H(1)              -0.00069      -3.09406      -1.10404      -1.03207
    11  F(19)             -0.00029      -1.20530      -0.43008      -0.40204
    12  F(19)             -0.00029      -1.20534      -0.43009      -0.40206
 --------------------------------------------------------
       Center         ----  Spin Dipole Couplings  ----
                      3XX-RR        3YY-RR        3ZZ-RR
 --------------------------------------------------------
     1   Atom        0.007196      0.000385     -0.007582
     2   Atom        0.003565      0.000224     -0.003789
     3   Atom        0.001014      0.000538     -0.001552
     4   Atom        0.000613      0.000938     -0.001552
     5   Atom        0.002614      0.001176     -0.003789
     6   Atom       -0.003482      0.011063     -0.007581
     7   Atom        0.003813     -0.000040     -0.003773
     8   Atom        0.001929      0.000231     -0.002159
     9   Atom        0.001818      0.000341     -0.002159
    10   Atom       -0.001345      0.005118     -0.003773
    11   Atom       -0.003545      0.009120     -0.005575
    12   Atom        0.008294     -0.002718     -0.005576
 --------------------------------------------------------
                        XY            XZ            YZ
 --------------------------------------------------------
     1   Atom        0.006431      0.000000      0.000000
     2   Atom       -0.001793     -0.000000      0.000000
     3   Atom        0.000050     -0.000000     -0.000000
     4   Atom       -0.000182      0.000000     -0.000000
     5   Atom       -0.002342      0.000000     -0.000000
     6   Atom        0.000267      0.000000      0.000000
     7   Atom        0.002618     -0.000000     -0.000000
     8   Atom       -0.001343      0.000000     -0.000000
     9   Atom       -0.001407     -0.000000      0.000000
    10   Atom       -0.000360     -0.000000     -0.000000
    11   Atom       -0.002699     -0.000000      0.000000
    12   Atom        0.004135      0.000000      0.000000
 --------------------------------------------------------


 ---------------------------------------------------------------------------------
              Anisotropic Spin Dipole Couplings in Principal Axis System
 ---------------------------------------------------------------------------------

       Atom             a.u.   MegaHertz   Gauss  10(-4) cm-1        Axes

              Baa    -0.0076    -1.017    -0.363    -0.339 -0.0000 -0.0000  1.0000
     1 C(13)  Bbb    -0.0035    -0.468    -0.167    -0.156 -0.5158  0.8567  0.0000
              Bcc     0.0111     1.485     0.530     0.495  0.8567  0.5158  0.0000
 
              Baa    -0.0038    -0.508    -0.181    -0.170  0.0000 -0.0000  1.0000
     2 C(13)  Bbb    -0.0006    -0.075    -0.027    -0.025  0.3989  0.9170  0.0000
              Bcc     0.0043     0.583     0.208     0.194  0.9170 -0.3989 -0.0000
 
              Baa    -0.0016    -0.208    -0.074    -0.069  0.0000  0.0000  1.0000
     3 C(13)  Bbb     0.0005     0.071     0.026     0.024 -0.1030  0.9947 -0.0000
              Bcc     0.0010     0.137     0.049     0.046  0.9947  0.1030 -0.0000
 
              Baa    -0.0016    -0.208    -0.074    -0.069 -0.0000  0.0000  1.0000
     4 C(13)  Bbb     0.0005     0.071     0.025     0.024  0.9130  0.4080 -0.0000
              Bcc     0.0010     0.137     0.049     0.046 -0.4080  0.9130 -0.0000
 
              Baa    -0.0038    -0.508    -0.181    -0.170 -0.0000  0.0000  1.0000
     5 C(13)  Bbb    -0.0006    -0.074    -0.027    -0.025  0.5943  0.8042  0.0000
              Bcc     0.0043     0.583     0.208     0.194  0.8042 -0.5943  0.0000
 
              Baa    -0.0076    -1.017    -0.363    -0.339 -0.0000 -0.0000  1.0000
     6 C(13)  Bbb    -0.0035    -0.468    -0.167    -0.156  0.9998 -0.0184  0.0000
              Bcc     0.0111     1.485     0.530     0.495  0.0184  0.9998  0.0000
 
              Baa    -0.0038    -2.013    -0.718    -0.671  0.0000  0.0000  1.0000
     7 H(1)   Bbb    -0.0014    -0.728    -0.260    -0.243 -0.4513  0.8924 -0.0000
              Bcc     0.0051     2.741     0.978     0.914  0.8924  0.4513 -0.0000
 
              Baa    -0.0022    -1.152    -0.411    -0.384 -0.0000  0.0000  1.0000
     8 H(1)   Bbb    -0.0005    -0.272    -0.097    -0.091  0.4826  0.8759 -0.0000
              Bcc     0.0027     1.424     0.508     0.475  0.8759 -0.4826  0.0000
 
              Baa    -0.0022    -1.152    -0.411    -0.384  0.0000 -0.0000  1.0000
     9 H(1)   Bbb    -0.0005    -0.272    -0.097    -0.091  0.5173  0.8558  0.0000
              Bcc     0.0027     1.424     0.508     0.475  0.8558 -0.5173 -0.0000
 
              Baa    -0.0038    -2.013    -0.718    -0.672  0.0000  0.0000  1.0000
    10 H(1)   Bbb    -0.0014    -0.728    -0.260    -0.243  0.9985  0.0554 -0.0000
              Bcc     0.0051     2.742     0.978     0.915 -0.0554  0.9985 -0.0000
 
              Baa    -0.0056    -2.800    -0.999    -0.934  0.0000 -0.0000  1.0000
    11 F(19)  Bbb    -0.0041    -2.057    -0.734    -0.686  0.9798  0.2001 -0.0000
              Bcc     0.0097     4.857     1.733     1.620 -0.2001  0.9798  0.0000
 
              Baa    -0.0056    -2.801    -0.999    -0.934 -0.0000  0.0000  1.0000
    12 F(19)  Bbb    -0.0041    -2.058    -0.734    -0.686 -0.3166  0.9486 -0.0000
              Bcc     0.0097     4.859     1.734     1.621  0.9486  0.3166  0.0000
 

 ---------------------------------------------------------------------------------

 No NMR shielding tensors so no spin-rotation constants.
 Leave Link  601 at Wed Jan 29 15:38:14 2025, MaxMem=   104857600 cpu:               0.1 elap:               0.1
 (Enter /sw/cluster/pub/apps//g16/l701.exe)
 ... and contract with generalized density number  0.
 Compute integral first derivatives.
 Leave Link  701 at Wed Jan 29 15:38:14 2025, MaxMem=   104857600 cpu:               0.1 elap:               0.1
 (Enter /sw/cluster/pub/apps//g16/l702.exe)
 L702 exits ... SP integral derivatives will be done elsewhere.
 Leave Link  702 at Wed Jan 29 15:38:14 2025, MaxMem=   104857600 cpu:               0.0 elap:               0.0
 (Enter /sw/cluster/pub/apps//g16/l703.exe)
 Integral derivatives from FoFJK, PRISM(SPDF).
 Compute integral first derivatives, UseDBF=F ICtDFT=           0.
 Calling FoFJK, ICntrl=      2127 FMM=F ISym2X=0 I1Cent= 0 IOpClX= 1 NMat=1 NMatS=1 NMatT=0.
 FoFJK:  IHMeth= 1 ICntrl=    2127 DoSepK=F KAlg= 0 I1Cent=           0 FoldK=F
 IRaf=         0 NMat=       1 IRICut=       1 DoRegI=T DoRafI=F ISym2E= 0 IDoP0=0 IntGTp=1.
 FoFCou: FMM=F IPFlag=           0 FMFlag=      100000 FMFlg1=         800
         NFxFlg=           0 DoJE=F BraDBF=F KetDBF=F FulRan=T
         wScrn=  0.000000 ICntrl=      2127 IOpCl=  1 I1Cent=           0 NGrid=           0
         NMat0=    1 NMatS0=      1 NMatT0=    0 NMatD0=    1 NMtDS0=    0 NMtDT0=    0
 Symmetry not used in FoFCou.
 Leave Link  703 at Wed Jan 29 15:38:28 2025, MaxMem=   104857600 cpu:              13.7 elap:              13.8
 (Enter /sw/cluster/pub/apps//g16/l716.exe)
 Dipole        =-1.47944364D+00-2.56334060D+00 1.68184287D-10
 -------------------------------------------------------------------
 Center     Atomic                   Forces (Hartrees/Bohr)
 Number     Number              X              Y              Z
 -------------------------------------------------------------------
      1        6          -0.002729951   -0.001366957    0.000000000
      2        6          -0.002220197    0.001162581   -0.000000000
      3        6          -0.000272957    0.008568145    0.000000000
      4        6           0.007532203    0.004074923    0.000000000
      5        6           0.002087997   -0.001387074    0.000000000
      6        6           0.000209624   -0.003067530   -0.000000000
      7        1           0.001779553    0.001060227   -0.000000000
      8        1           0.002165315   -0.000066131    0.000000000
      9        1          -0.001141299    0.001855984    0.000000000
     10        1           0.000041162    0.002076422   -0.000000000
     11        9          -0.000580188   -0.008240427    0.000000000
     12        9          -0.006871261   -0.004670164   -0.000000000
 -------------------------------------------------------------------
 Cartesian Forces:  Max     0.008568145 RMS     0.003043556
 Leave Link  716 at Wed Jan 29 15:38:28 2025, MaxMem=   104857600 cpu:               0.0 elap:               0.0
 (Enter /sw/cluster/pub/apps//g16/l103.exe)

 GradGradGradGradGradGradGradGradGradGradGradGradGradGradGradGradGradGrad
 Berny optimization.
 FormGI is forming the generalized inverse of G from B-inverse, IUseBI=4.
 Internal  Forces:  Max     0.008293593 RMS     0.001743136
 Search for a local minimum.
 Step number   1 out of a maximum of   64
 All quantities printed in internal units (Hartrees-Bohrs-Radians)
 RMS Force = .17431D-02 SwitMx=.10000D-02 MixMth= 1
 Mixed Optimization -- RFO/linear search
 Second derivative matrix not updated -- first step.
 ITU=  0
     Eigenvalues ---    0.02217   0.02220   0.02221   0.02259   0.02260
     Eigenvalues ---    0.02268   0.02284   0.02290   0.02304   0.16000
     Eigenvalues ---    0.16000   0.16000   0.16000   0.22000   0.22498
     Eigenvalues ---    0.24492   0.25000   0.25000   0.35501   0.35502
     Eigenvalues ---    0.35505   0.35506   0.43252   0.43371   0.47260
     Eigenvalues ---    0.47542   0.48069   0.48539   0.58213   0.58221
 RFO step:  Lambda=-3.27019889D-04 EMin= 2.21688960D-02
 Linear search not attempted -- first point.
 Iteration  1 RMS(Cart)=  0.00444226 RMS(Int)=  0.00001268
 Iteration  2 RMS(Cart)=  0.00001480 RMS(Int)=  0.00000006
 Iteration  3 RMS(Cart)=  0.00000000 RMS(Int)=  0.00000006
 ITry= 1 IFail=0 DXMaxC= 1.56D-02 DCOld= 1.00D+10 DXMaxT= 3.00D-01 DXLimC= 3.00D+00 Rises=F
 Variable       Old X    -DE/DX   Delta X   Delta X   Delta X     New X
                                 (Linear)    (Quad)   (Total)
    R1        2.62783  -0.00106   0.00000  -0.00232  -0.00232   2.62551
    R2        2.62638  -0.00147   0.00000  -0.00324  -0.00324   2.62313
    R3        2.04868   0.00207   0.00000   0.00583   0.00583   2.05451
    R4        2.61185   0.00024   0.00000   0.00056   0.00056   2.61241
    R5        2.04863   0.00188   0.00000   0.00528   0.00528   2.05391
    R6        2.62275  -0.00070   0.00000  -0.00132  -0.00132   2.62143
    R7        2.52383   0.00825   0.00000   0.01416   0.01416   2.53799
    R8        2.61187   0.00023   0.00000   0.00055   0.00055   2.61242
    R9        2.52376   0.00829   0.00000   0.01424   0.01424   2.53800
   R10        2.62770  -0.00099   0.00000  -0.00217  -0.00217   2.62553
   R11        2.04861   0.00189   0.00000   0.00530   0.00530   2.05392
   R12        2.04867   0.00208   0.00000   0.00584   0.00584   2.05451
    A1        2.09828   0.00022   0.00000   0.00049   0.00049   2.09877
    A2        2.08632  -0.00007   0.00000  -0.00001  -0.00001   2.08631
    A3        2.09858  -0.00015   0.00000  -0.00048  -0.00048   2.09810
    A4        2.08244  -0.00001   0.00000  -0.00007  -0.00007   2.08237
    A5        2.12739  -0.00110   0.00000  -0.00687  -0.00687   2.12052
    A6        2.07335   0.00111   0.00000   0.00694   0.00694   2.08029
    A7        2.10244  -0.00019   0.00000  -0.00039  -0.00039   2.10205
    A8        2.10075   0.00068   0.00000   0.00252   0.00252   2.10327
    A9        2.07999  -0.00049   0.00000  -0.00213  -0.00213   2.07786
   A10        2.10265  -0.00025   0.00000  -0.00058  -0.00058   2.10206
   A11        2.08008  -0.00050   0.00000  -0.00218  -0.00218   2.07790
   A12        2.10046   0.00074   0.00000   0.00276   0.00276   2.10322
   A13        2.08247  -0.00002   0.00000  -0.00009  -0.00009   2.08238
   A14        2.07315   0.00113   0.00000   0.00703   0.00703   2.08018
   A15        2.12757  -0.00111   0.00000  -0.00694  -0.00694   2.12063
   A16        2.09809   0.00025   0.00000   0.00064   0.00064   2.09873
   A17        2.09874  -0.00018   0.00000  -0.00064  -0.00064   2.09810
   A18        2.08635  -0.00007   0.00000   0.00000   0.00000   2.08635
    D1        0.00000  -0.00000   0.00000  -0.00000  -0.00000   0.00000
    D2        3.14159   0.00000   0.00000   0.00000   0.00000   3.14159
    D3        3.14159  -0.00000   0.00000  -0.00000   0.00000   3.14159
    D4       -0.00000   0.00000   0.00000   0.00000   0.00000   0.00000
    D5       -0.00000   0.00000   0.00000   0.00000   0.00000   0.00000
    D6        3.14159   0.00000   0.00000   0.00000   0.00000   3.14159
    D7        3.14159   0.00000   0.00000   0.00000   0.00000   3.14159
    D8        0.00000   0.00000   0.00000   0.00000  -0.00000   0.00000
    D9       -0.00000   0.00000   0.00000   0.00000   0.00000   0.00000
   D10        3.14159   0.00000   0.00000   0.00000   0.00000   3.14159
   D11        3.14159  -0.00000   0.00000  -0.00000   0.00000   3.14159
   D12        0.00000  -0.00000   0.00000  -0.00000  -0.00000   0.00000
   D13        0.00000  -0.00000   0.00000  -0.00000  -0.00000   0.00000
   D14        3.14159  -0.00000   0.00000  -0.00000   0.00000   3.14159
   D15        3.14159  -0.00000   0.00000  -0.00000   0.00000   3.14159
   D16        0.00000  -0.00000   0.00000  -0.00000  -0.00000   0.00000
   D17        0.00000  -0.00000   0.00000  -0.00000  -0.00000   0.00000
   D18        3.14159  -0.00000   0.00000  -0.00000   0.00000   3.14159
   D19        3.14159   0.00000   0.00000   0.00000   0.00000   3.14159
   D20       -0.00000   0.00000   0.00000   0.00000   0.00000   0.00000
   D21        0.00000  -0.00000   0.00000  -0.00000  -0.00000   0.00000
   D22        3.14159   0.00000   0.00000   0.00000   0.00000   3.14159
   D23        3.14159  -0.00000   0.00000  -0.00000   0.00000   3.14159
   D24        0.00000   0.00000   0.00000   0.00000   0.00000   0.00000
         Item               Value     Threshold  Converged?
 Maximum Force            0.008294     0.000450     NO 
 RMS     Force            0.001743     0.000300     NO 
 Maximum Displacement     0.015626     0.001800     NO 
 RMS     Displacement     0.004447     0.001200     NO 
 Predicted change in Energy=-1.636358D-04
 Lowest energy point so far.  Saving SCF results.
 GradGradGradGradGradGradGradGradGradGradGradGradGradGradGradGradGradGrad

 Leave Link  103 at Wed Jan 29 15:38:28 2025, MaxMem=   104857600 cpu:               0.0 elap:               0.0
 (Enter /sw/cluster/pub/apps//g16/l202.exe)
                          Input orientation:                          
 ---------------------------------------------------------------------
 Center     Atomic      Atomic             Coordinates (Angstroms)
 Number     Number       Type             X           Y           Z
 ---------------------------------------------------------------------
      1          6           0        1.199869    0.690133    0.000000
      2          6           0        1.205926   -0.699215   -0.000000
      3          6           0        0.003448   -1.381236   -0.000000
      4          6           0       -1.197899   -0.687632    0.000000
      5          6           0       -1.208493    0.694759    0.000000
      6          6           0       -0.002252    1.384203   -0.000000
      7          1           0        2.143430    1.230226    0.000000
      8          1           0        2.135143   -1.263016   -0.000000
      9          1           0       -2.161429    1.217478    0.000000
     10          1           0       -0.006264    2.471396    0.000000
     11          9           0       -0.018760   -2.724100    0.000000
     12          9           0       -2.349783   -1.378247   -0.000000
 ---------------------------------------------------------------------
                    Distance matrix (angstroms):
                    1          2          3          4          5
     1  C    0.000000
     2  C    1.389361   0.000000
     3  C    2.392069   1.382428   0.000000
     4  C    2.765416   2.403852   1.387199   0.000000
     5  C    2.408367   2.787935   2.403863   1.382431   0.000000
     6  C    1.388102   2.408386   2.765445   2.392085   1.389371
     7  H    1.087202   2.145147   3.376279   3.852617   3.394424
     8  H    2.165532   1.086884   2.134971   3.382342   3.874634
     9  H    3.402414   3.874634   3.382308   2.134908   1.086887
    10  H    2.151198   3.394433   3.852644   3.376307   2.145179
    11  F    3.625195   2.366435   1.343047   2.353204   3.619953
    12  F    4.108311   3.619965   2.353232   1.343051   2.366410
                    6          7          8          9         10
     6  C    0.000000
     7  H    2.151199   0.000000
     8  H    3.402385   2.493256   0.000000
     9  H    2.165605   4.304878   4.961188   0.000000
    10  H    1.087200   2.482274   4.304817   2.493401   0.000000
    11  F    4.108336   4.506857   2.602703   4.486320   5.195510
    12  F    3.625194   5.195487   4.486406   2.602549   4.506864
                   11         12
    11  F    0.000000
    12  F    2.691651   0.000000
 Symmetry turned off by external request.
 Stoichiometry    C6H4F2(1-,2)
 Framework group  CS[SG(C6H4F2)]
 Deg. of freedom    21
 Full point group                 CS      NOp   2
 Rotational constants (GHZ):           3.2801502           2.2304910           1.3276759
 Leave Link  202 at Wed Jan 29 15:38:28 2025, MaxMem=   104857600 cpu:               0.0 elap:               0.0
 (Enter /sw/cluster/pub/apps//g16/l301.exe)
 Standard basis: 6-311++G(d,p) (5D, 7F)
 Ernie: Thresh=  0.10000D-02 Tol=  0.10000D-05 Strict=F.
   204 basis functions,   324 primitive gaussians,   212 cartesian basis functions
    30 alpha electrons       29 beta electrons
       nuclear repulsion energy       348.0329174704 Hartrees.
 IExCor= 1009 DFT=T Ex+Corr=PBE1PBE ExCW=0 ScaHFX=  0.250000
 ScaDFX=  0.750000  0.750000  1.000000  1.000000 ScalE2=  1.000000  1.000000
 IRadAn=      5 IRanWt=     -1 IRanGd=            0 ICorTp=0 IEmpDi=  4
 NAtoms=   12 NActive=   12 NUniq=   12 SFac= 1.00D+00 NAtFMM=   60 NAOKFM=F Big=F
 Integral buffers will be    131072 words long.
 Raffenetti 2 integral format.
 Two-electron integral symmetry is turned off.
 Leave Link  301 at Wed Jan 29 15:38:28 2025, MaxMem=   104857600 cpu:               0.0 elap:               0.0
 (Enter /sw/cluster/pub/apps//g16/l302.exe)
 NPDir=0 NMtPBC=     1 NCelOv=     1 NCel=       1 NClECP=     1 NCelD=      1
         NCelK=      1 NCelE2=     1 NClLst=     1 CellRange=     0.0.
 One-electron integrals computed using PRISM.
 NBasis=   204 RedAO= T EigKep=  1.69D-06  NBF=   204
 NBsUse=   204 1.00D-06 EigRej= -1.00D+00 NBFU=   204
 Precomputing XC quadrature grid using
 IXCGrd= 4 IRadAn=           5 IRanWt=          -1 IRanGd=           0 AccXCQ= 0.00D+00.
 Generated NRdTot=       0 NPtTot=           0 NUsed=           0 NTot=          32
 NSgBfM=   212   212   212   212   212 MxSgAt=    12 MxSgA2=    12.
 Leave Link  302 at Wed Jan 29 15:38:29 2025, MaxMem=   104857600 cpu:               0.2 elap:               0.2
 (Enter /sw/cluster/pub/apps//g16/l303.exe)
 DipDrv:  MaxL=1.
 Leave Link  303 at Wed Jan 29 15:38:29 2025, MaxMem=   104857600 cpu:               0.0 elap:               0.0
 (Enter /sw/cluster/pub/apps//g16/l401.exe)
 Initial guess from the checkpoint file:  "1-2-DFB-ANI.chk"
 B after Tr=    -0.002460   -0.004205   -0.000000
         Rot=    1.000000    0.000000    0.000000   -0.000010 Ang=  -0.00 deg.
 Guess basis will be translated and rotated to current coordinates.
 JPrj=2 DoOrth=T DoCkMO=T.
 Initial guess <Sx>= 0.0000 <Sy>= 0.0000 <Sz>= 0.5000 <S**2>= 0.7501 S= 0.5000
 Leave Link  401 at Wed Jan 29 15:38:29 2025, MaxMem=   104857600 cpu:               0.1 elap:               0.1
 (Enter /sw/cluster/pub/apps//g16/l502.exe)
 Two-electron integral symmetry not used.
 UHF open shell SCF:
 Using DIIS extrapolation, IDIIS=  1040.
 NGot=   104857600 LenX=   104764860 LenY=   104719475
 Requested convergence on RMS density matrix=1.00D-08 within 128 cycles.
 Requested convergence on MAX density matrix=1.00D-06.
 Requested convergence on             energy=1.00D-06.
 No special actions if energy rises.
 Fock matrices will be formed incrementally for  20 cycles.

 Cycle   1  Pass 1  IDiag  1:
 FoFJK:  IHMeth= 1 ICntrl=       0 DoSepK=F KAlg= 0 I1Cent=           0 FoldK=F
 IRaf= 970000000 NMat=       1 IRICut=       1 DoRegI=T DoRafI=F ISym2E= 0 IDoP0=0 IntGTp=1.
 FoFCou: FMM=F IPFlag=           0 FMFlag=      100000 FMFlg1=           0
         NFxFlg=           0 DoJE=F BraDBF=F KetDBF=F FulRan=T
         wScrn=  0.000000 ICntrl=         0 IOpCl=  1 I1Cent=           0 NGrid=           0
         NMat0=    1 NMatS0=      1 NMatT0=    0 NMatD0=    1 NMtDS0=    0 NMtDT0=    0
 Symmetry not used in FoFCou.
 E= -430.352022769281    
 DIIS: error= 6.95D-04 at cycle   1 NSaved=   1.
 NSaved= 1 IEnMin= 1 EnMin= -430.352022769281     IErMin= 1 ErrMin= 6.95D-04
 ErrMax= 6.95D-04  0.00D+00 EMaxC= 1.00D-01 BMatC= 3.44D-04 BMatP= 3.44D-04
 IDIUse=3 WtCom= 9.93D-01 WtEn= 6.95D-03
 Coeff-Com:  0.100D+01
 Coeff-En:   0.100D+01
 Coeff:      0.100D+01
 Gap=     0.268 Goal=   None    Shift=    0.000
 Gap=     0.419 Goal=   None    Shift=    0.000
 RMSDP=2.18D-03 MaxDP=2.06D-01              OVMax= 6.40D-03

 Cycle   2  Pass 1  IDiag  1:
 RMSU=  1.84D-03    CP:  9.95D-01
 E= -430.352106736404     Delta-E=       -0.000083967123 Rises=F Damp=F
 DIIS: error= 1.14D-04 at cycle   2 NSaved=   2.
 NSaved= 2 IEnMin= 2 EnMin= -430.352106736404     IErMin= 2 ErrMin= 1.14D-04
 ErrMax= 1.14D-04  0.00D+00 EMaxC= 1.00D-01 BMatC= 9.75D-06 BMatP= 3.44D-04
 IDIUse=3 WtCom= 9.99D-01 WtEn= 1.14D-03
[...]
    A1        2.09932   0.00000   0.00000   0.00018   0.00018   2.09949
    A2        2.08554   0.00001   0.00000  -0.00004  -0.00004   2.08550
    A3        2.09832  -0.00001   0.00000  -0.00014  -0.00014   2.09819
    A4        2.08048  -0.00007   0.00000  -0.00053  -0.00053   2.07995
    A5        2.11842   0.00001   0.00000  -0.00007  -0.00007   2.11835
    A6        2.08429   0.00006   0.00000   0.00060   0.00060   2.08489
    A7        2.10339   0.00007   0.00000   0.00035   0.00036   2.10375
    A8        2.10274  -0.00001   0.00000   0.00003   0.00003   2.10277
    A9        2.07706  -0.00006   0.00000  -0.00039  -0.00039   2.07667
   A10        2.10338   0.00007   0.00000   0.00035   0.00035   2.10373
   A11        2.07705  -0.00005   0.00000  -0.00038  -0.00038   2.07668
   A12        2.10275  -0.00002   0.00000   0.00003   0.00003   2.10278
   A13        2.08048  -0.00007   0.00000  -0.00053  -0.00053   2.07995
   A14        2.08428   0.00006   0.00000   0.00062   0.00062   2.08490
   A15        2.11842   0.00001   0.00000  -0.00008  -0.00008   2.11834
   A16        2.09932   0.00000   0.00000   0.00018   0.00018   2.09950
   A17        2.09832  -0.00001   0.00000  -0.00013  -0.00013   2.09819
   A18        2.08555   0.00001   0.00000  -0.00005  -0.00005   2.08550
    D1        0.00000  -0.00000   0.00000  -0.00000  -0.00000  -0.00000
    D2        3.14159  -0.00000   0.00000   0.00000   0.00000   3.14159
    D3        3.14159  -0.00000   0.00000  -0.00000   0.00000   3.14159
    D4       -0.00000   0.00000   0.00000   0.00000   0.00000   0.00000
    D5       -0.00000   0.00000   0.00000   0.00000   0.00000   0.00000
    D6        3.14159   0.00000   0.00000   0.00000   0.00000  -3.14159
    D7        3.14159   0.00000   0.00000   0.00000   0.00000   3.14159
    D8        0.00000  -0.00000   0.00000  -0.00000  -0.00000   0.00000
    D9       -0.00000   0.00000   0.00000   0.00000   0.00000   0.00000
   D10        3.14159   0.00000   0.00000   0.00000   0.00000   3.14159
   D11        3.14159  -0.00000   0.00000  -0.00000   0.00000   3.14159
   D12        0.00000   0.00000   0.00000  -0.00000  -0.00000   0.00000
   D13       -0.00000   0.00000   0.00000   0.00000   0.00000   0.00000
   D14       -3.14159  -0.00000   0.00000  -0.00000  -0.00000   3.14159
   D15        3.14159  -0.00000   0.00000  -0.00000   0.00000   3.14159
   D16        0.00000  -0.00000   0.00000  -0.00000  -0.00000   0.00000
   D17        0.00000  -0.00000   0.00000  -0.00000  -0.00000   0.00000
   D18        3.14159  -0.00000   0.00000  -0.00000   0.00000   3.14159
   D19        3.14159   0.00000   0.00000   0.00000   0.00000   3.14159
   D20       -0.00000   0.00000   0.00000   0.00000   0.00000   0.00000
   D21        0.00000  -0.00000   0.00000  -0.00000  -0.00000   0.00000
   D22        3.14159   0.00000   0.00000   0.00000   0.00000   3.14159
   D23        3.14159  -0.00000   0.00000  -0.00000   0.00000   3.14159
   D24       -0.00000   0.00000   0.00000   0.00000   0.00000   0.00000
         Item               Value     Threshold  Converged?
 Maximum Force            0.000224     0.000450     YES
 RMS     Force            0.000064     0.000300     YES
 Maximum Displacement     0.000819     0.001800     YES
 RMS     Displacement     0.000251     0.001200     YES
 Predicted change in Energy=-4.103432D-07
 Optimization completed.
    -- Stationary point found.
                           ----------------------------
                           !   Optimized Parameters   !
                           ! (Angstroms and Degrees)  !
 --------------------------                            --------------------------
 ! Name  Definition              Value          Derivative Info.                !
 --------------------------------------------------------------------------------
 ! R1    R(1,2)                  1.3894         -DE/DX =    0.0002              !
 ! R2    R(1,6)                  1.3883         -DE/DX =   -0.0001              !
 ! R3    R(1,7)                  1.0875         -DE/DX =   -0.0001              !
 ! R4    R(2,3)                  1.3817         -DE/DX =   -0.0001              !
 ! R5    R(2,8)                  1.0871         -DE/DX =   -0.0001              !
 ! R6    R(3,4)                  1.3864         -DE/DX =   -0.0001              !
 ! R7    R(3,11)                 1.346          -DE/DX =    0.0001              !
 ! R8    R(4,5)                  1.3817         -DE/DX =   -0.0001              !
 ! R9    R(4,12)                 1.346          -DE/DX =    0.0001              !
 ! R10   R(5,6)                  1.3894         -DE/DX =    0.0002              !
 ! R11   R(5,9)                  1.0871         -DE/DX =   -0.0001              !
 ! R12   R(6,10)                 1.0875         -DE/DX =   -0.0001              !
 ! A1    A(2,1,6)              120.2821         -DE/DX =    0.0                 !
 ! A2    A(2,1,7)              119.4928         -DE/DX =    0.0                 !
 ! A3    A(6,1,7)              120.2251         -DE/DX =    0.0                 !
 ! A4    A(1,2,3)              119.2026         -DE/DX =   -0.0001              !
 ! A5    A(1,2,8)              121.3764         -DE/DX =    0.0                 !
 ! A6    A(3,2,8)              119.421          -DE/DX =    0.0001              !
 ! A7    A(2,3,4)              120.5155         -DE/DX =    0.0001              !
 ! A8    A(2,3,11)             120.4779         -DE/DX =    0.0                 !
 ! A9    A(4,3,11)             119.0066         -DE/DX =   -0.0001              !
 ! A10   A(3,4,5)              120.515          -DE/DX =    0.0001              !
 ! A11   A(3,4,12)             119.0064         -DE/DX =   -0.0001              !
 ! A12   A(5,4,12)             120.4786         -DE/DX =    0.0                 !
 ! A13   A(4,5,6)              119.2027         -DE/DX =   -0.0001              !
 ! A14   A(4,5,9)              119.4205         -DE/DX =    0.0001              !
 ! A15   A(6,5,9)              121.3768         -DE/DX =    0.0                 !
 ! A16   A(1,6,5)              120.282          -DE/DX =    0.0                 !
 ! A17   A(1,6,10)             120.2248         -DE/DX =    0.0                 !
 ! A18   A(5,6,10)             119.4932         -DE/DX =    0.0                 !
 ! D1    D(6,1,2,3)              0.0            -DE/DX =    0.0                 !
 ! D2    D(6,1,2,8)            180.0            -DE/DX =    0.0                 !
 ! D3    D(7,1,2,3)            180.0            -DE/DX =    0.0                 !
 ! D4    D(7,1,2,8)              0.0            -DE/DX =    0.0                 !
 ! D5    D(2,1,6,5)              0.0            -DE/DX =    0.0                 !
 ! D6    D(2,1,6,10)          -180.0            -DE/DX =    0.0                 !
 ! D7    D(7,1,6,5)            180.0            -DE/DX =    0.0                 !
 ! D8    D(7,1,6,10)             0.0            -DE/DX =    0.0                 !
 ! D9    D(1,2,3,4)              0.0            -DE/DX =    0.0                 !
 ! D10   D(1,2,3,11)           180.0            -DE/DX =    0.0                 !
 ! D11   D(8,2,3,4)            180.0            -DE/DX =    0.0                 !
 ! D12   D(8,2,3,11)             0.0            -DE/DX =    0.0                 !
 ! D13   D(2,3,4,5)              0.0            -DE/DX =    0.0                 !
 ! D14   D(2,3,4,12)           180.0            -DE/DX =    0.0                 !
 ! D15   D(11,3,4,5)           180.0            -DE/DX =    0.0                 !
 ! D16   D(11,3,4,12)            0.0            -DE/DX =    0.0                 !
 ! D17   D(3,4,5,6)              0.0            -DE/DX =    0.0                 !
 ! D18   D(3,4,5,9)            180.0            -DE/DX =    0.0                 !
 ! D19   D(12,4,5,6)           180.0            -DE/DX =    0.0                 !
 ! D20   D(12,4,5,9)             0.0            -DE/DX =    0.0                 !
 ! D21   D(4,5,6,1)              0.0            -DE/DX =    0.0                 !
 ! D22   D(4,5,6,10)           180.0            -DE/DX =    0.0                 !
 ! D23   D(9,5,6,1)            180.0            -DE/DX =    0.0                 !
 ! D24   D(9,5,6,10)             0.0            -DE/DX =    0.0                 !
 --------------------------------------------------------------------------------
 GradGradGradGradGradGradGradGradGradGradGradGradGradGradGradGradGradGrad

 Leave Link  103 at Wed Jan 29 15:51:01 2025, MaxMem=   104857600 cpu:               0.0 elap:               0.0
 (Enter /sw/cluster/pub/apps//g16/l9999.exe)

 ----------------------------------------------------------------------

 Electric dipole moment (input orientation):
 (Debye = 10**-18 statcoulomb cm , SI units = C m)
                  (au)            (Debye)         (10**-30 SI)
   Tot        0.295664D+01      0.751504D+01      0.250675D+02
   x         -0.147776D+01     -0.375610D+01     -0.125290D+02
   y         -0.256085D+01     -0.650904D+01     -0.217118D+02
   z          0.000000D+00      0.000000D+00      0.000000D+00

 Dipole polarizability, Alpha (input orientation).
 (esu units = cm**3 , SI units = C**2 m**2 J**-1)
 Alpha(0;0):
               (au)            (10**-24 esu)      (10**-40 SI)
   iso        0.179135D+04      0.265451D+03      0.295354D+03
   aniso      0.329809D+04      0.488726D+03      0.543781D+03
   xx         0.324031D+04      0.480164D+03      0.534254D+03
   yx        -0.112290D+04     -0.166396D+03     -0.185141D+03
   yy         0.195586D+04      0.289828D+03      0.322477D+03
   zx        -0.250159D-04     -0.370697D-05     -0.412456D-05
   zy         0.000000D+00      0.000000D+00      0.000000D+00
   zz         0.177890D+03      0.263606D+02      0.293301D+02

 ----------------------------------------------------------------------

 Dipole orientation:
     6          1.13660258         -0.65588658         -2.26140068
     6          2.28289226         -1.31736316          0.00619018
     6          1.13414634         -0.65446919          2.25528196
     6         -1.13500717          0.65496592          2.25471717
     6         -2.28289815          1.31736658          0.00503611
     6         -1.13574633          0.65539249         -2.26197683
     1          2.03300003         -1.17316066         -4.03691914
     1          4.06188483         -2.34394658          0.04587361
     1         -4.06190863          2.34396032          0.04383378
     1         -2.03146111          1.17227262         -4.03795820
     9          2.20198865         -1.27067707          4.47998976
     9         -2.20367726          1.27165147          4.47889900

 Electric dipole moment (dipole orientation):
 (Debye = 10**-18 statcoulomb cm , SI units = C m)
                  (au)            (Debye)         (10**-30 SI)
   Tot        0.295664D+01      0.751504D+01      0.250675D+02
   x          0.000000D+00      0.000000D+00      0.000000D+00
   y          0.000000D+00      0.000000D+00      0.000000D+00
   z          0.295664D+01      0.751504D+01      0.250675D+02

 Dipole polarizability, Alpha (dipole orientation).
 (esu units = cm**3 , SI units = C**2 m**2 J**-1)
 Alpha(0;0):
               (au)            (10**-24 esu)      (10**-40 SI)
   iso        0.179135D+04      0.265451D+03      0.295354D+03
   aniso      0.329809D+04      0.488726D+03      0.543781D+03
   xx         0.296391D+04      0.439206D+03      0.488683D+03
   yx        -0.160770D+04     -0.238236D+03     -0.265074D+03
   yy         0.110563D+04      0.163837D+03      0.182293D+03
   zx         0.505043D+01      0.748397D+00      0.832704D+00
   zy        -0.291439D+01     -0.431868D+00     -0.480518D+00
   zz         0.130451D+04      0.193309D+03      0.215085D+03

 ----------------------------------------------------------------------
 1\1\GINC-N03\Freq\UPBE1PBE\6-311++G(d,p)\C6H4F2(1-,2)\UNKNOWN\29-Jan-2
 025\0\\#P Geom=AllCheck Guess=TCheck SCRF=Check GenChk UPBE1PBE/6-311+
 +G(d,p) Freq\\1 2-DFB SP\\-1,2\C,1.1995784836,0.6894072964,-0.00000000
 2\C,1.2064173226,-0.6999557722,0.0000000075\C,0.0036684301,-1.38001325
 7,0.0000000013\C,-1.1969665128,-0.6868311706,-0.0000000042\C,-1.209389
 6673,0.6948121273,-0.0000000006\C,-0.0027443965,1.3835703603,0.0000000
 025\H,2.1435356612,1.2294665219,-0.0000000054\H,2.1373238451,-1.261388
 768,0.0000000038\H,-2.1610630061,1.2202796646,-0.0000000012\H,-0.00700
 97313,2.4710926017,0.0000000013\F,-0.0196632045,-2.7257661673,-0.00000
 00075\F,-2.3507527201,-1.3799239221,0.0000000055\\Version=ES64L-G16Rev
 A.03\HF=-430.3521275\S2=0.750057\S2-1=0.\S2A=0.75\RMSD=4.047e-09\RMSF=
 1.427e-04\ZeroPoint=0.0836485\Thermal=0.0897149\Dipole=-2.1038995,-3.6
 453537,0.\DipoleDeriv=-0.067192,-0.7093164,-0.0000001,0.2154767,-0.256
 6329,-0.0000001,-0.0000002,-0.0000003,0.7864951,0.6715711,0.6012114,0.
 ,-0.3379072,-0.4293514,0.,0.0000002,0.0000001,0.1034629,-0.7834754,0.4
 888487,0.,0.1094758,0.3275304,0.,0.0000004,0.,-0.0468964,-0.2154605,0.
 4398877,0.,0.8278542,-0.2532376,0.,-0.0000004,-0.0000001,-0.0435879,-0
 .2153445,-0.8838028,0.0000001,0.0718365,0.4984076,0.,-0.0000004,0.,0.1
 037454,-0.0369845,0.2777728,0.,-0.6426899,-0.3182848,0.0000002,0.00000
 09,0.0000004,0.772349,-0.3258006,0.1843544,0.,0.3378862,-0.6837098,0.,
 -0.0000004,0.,-0.8926032,-0.9335875,0.5656803,0.,-0.2309332,0.1429133,
 0.,0.,0.,-0.395058,-0.2957846,0.1558212,0.,0.9311842,-0.5174949,0.,0.0
 000003,0.,-0.3912511,-0.796718,0.0448856,0.,-0.1065739,-0.1829884,0.,-
 0.0000001,0.,-0.8864231,0.5362487,-0.4558609,0.,-1.2529896,0.8065739,0
 .,0.0000001,0.,-0.0553475,1.4625278,-0.709482,0.,0.0773802,-0.1337255,
 0.,-0.0000003,0.,-0.0548852\Polar=3240.3064312,-1122.8974431,1955.8562
 315,-0.000025,0.0000039,177.8902267\Quadrupole=-5.105754,-9.5801863,14
 .6859403,-3.8696624,0.,0.\PG=C01 [X(C6H4F2)]\NImag=0\\0.72000834,0.018
 75739,0.69508589,0.,0.,0.12776930,-0.12233048,0.03270156,0.,0.72601320
 ,-0.03241136,-0.35484188,0.,-0.02004203,0.71229874,0.,0.,-0.05192612,0
 .,0.,0.12060116,0.04059679,-0.08407157,0.,-0.31314060,-0.04676153,0.,0
 .73324126,-0.02547886,-0.02237030,0.,-0.12815689,-0.16299186,0.,0.0028
 3246,0.68102552,0.,0.,-0.00257473,0.,0.,-0.05935058,0.,0.,0.13731318,-
 0.02254296,0.03644054,0.,-0.04889549,-0.03613508,0.,-0.27921820,0.1572
 2877,0.,0.69163608,0.03434914,-0.05577423,0.,0.02816660,0.06771635,0.,
 0.05222181,-0.15828422,0.,-0.02120856,0.72264966,0.,0.,-0.00019344,0.,
 0.,0.00181667,0.,0.,-0.06438116,0.,0.,0.13730726,-0.05148237,0.0235624
 0,0.,-0.01948244,-0.02552660,0.,0.04205633,0.01635743,0.,-0.12477807,0
 .06201823,0.,0.73309394,-0.02565491,0.06082666,0.,-0.02937743,-0.05116
 844,0.,0.08064842,-0.02319830,0.,-0.01939994,-0.35132843,0.,-0.0160023
 1,0.70523892,0.00000001,0.,0.00416228,0.,0.,0.00158115,0.,0.,0.0018294
 8,0.,0.,-0.05935886,0.,0.,0.12069400,-0.29557877,0.06930005,0.,0.03373
 217,0.07270889,0.,-0.07811579,0.00439415,0.,0.04078853,-0.08398780,0.,
 -0.29670285,-0.06801975,0.,0.68476709,0.13163567,-0.17939613,0.,0.0234
 6776,-0.02430207,0.,0.00229514,-0.00020518,0.,-0.02537864,-0.02254667,
 0.,-0.13318279,-0.18038901,0.,-0.00116134,0.72990912,-0.00000001,-0.00
 000001,-0.05680740,0.,0.,0.00417409,0.,0.,-0.00017791,0.,0.,-0.0024559
 4,0.,0.,-0.05200774,0.,0.00000001,0.12742684,-0.26486790,-0.11892817,0
 .,0.00681145,0.00103106,0.,0.00075099,0.00003174,0.,-0.00088699,0.0007
 4680,0.,-0.00367671,0.00297706,0.,-0.01809260,-0.01123658,0.,0.2780774
 3,-0.11818812,-0.12531335,0.,-0.02633670,-0.01302185,0.,0.00159661,-0.
 00427296,0.,0.00043718,-0.00158327,0.,0.00230251,-0.00039065,0.,0.0148
 1929,0.01309051,0.,0.12645940,0.12977192,0.,0.,-0.03834421,0.,0.,0.001
 82361,0.,0.,0.00824291,0.,0.,-0.00090474,0.,0.,0.00690869,0.,0.,0.0018
 1019,0.,0.,0.02706895,0.00712047,0.00060013,0.,-0.26270506,0.12007150,
 0.,-0.01923052,0.01504226,0.,-0.00322996,-0.00370198,0.,-0.00030088,-0
 .00002785,0.,0.00120898,-0.00002681,0.,-0.00107979,-0.00046142,0.,0.27
 420608,0.02672171,-0.01012128,0.,0.12175370,-0.12760264,0.,-0.01465642
 ,0.01033613,0.,-0.00148087,-0.00124734,0.,-0.00081699,-0.00119367,0.,-
 0.00048284,-0.00602651,0.,0.00042335,0.00179765,0.,-0.13237609,0.13204
 841,0.,0.,0.00366847,0.,0.,-0.03512481,0.,0.,0.00570348,0.,0.,0.005801
 13,0.,0.,-0.00338227,0.,0.,0.00826135,0.,0.,-0.00383217,0.,0.,0.022770
 08,-0.00398415,-0.00347791,0.,-0.00060442,-0.00098563,0.,0.00049270,0.
 00066363,0.,0.00277705,-0.00195258,0.,-0.26611896,0.11980334,0.,-0.017
 66420,0.01240082,0.,0.00034210,0.00135117,0.,0.00047950,0.00001822,0.,
 0.28223810,-0.00304844,-0.00081757,0.,-0.00019074,-0.00091383,0.,-0.00
 155372,-0.00497406,0.,0.02775094,-0.01168241,0.,0.11812107,-0.12420677
 ,0.,-0.01376852,0.01467335,0.,-0.00145383,-0.00002783,0.,-0.00031333,0
 .00031769,0.,-0.12773319,0.12401198,0.,0.,0.00828125,0.,0.,-0.00338668
 ,0.,0.,0.00580180,0.,0.,0.00569227,0.,0.,-0.03514009,0.,0.,0.00374677,
 0.,0.,0.00022838,0.,0.,-0.00096630,0.,0.,0.02276739,0.00379383,0.02748
 429,0.,-0.00353801,0.00240788,0.,-0.00191744,-0.00017369,0.,-0.0037121
 8,-0.00096655,0.,0.00282011,-0.02861692,0.,-0.05734815,0.00139730,0.,0
 .00117697,-0.00061789,0.,0.00011595,0.00121894,0.,0.00110678,0.0008293
 3,0.,0.05722388,0.00141652,-0.00878679,0.,0.00307516,-0.00055982,0.,0.
 00014852,-0.00054324,0.,-0.00254202,0.00019497,0.,-0.00120391,-0.00909
 005,0.,0.00069090,-0.33257810,0.,-0.00196860,-0.00028095,0.,-0.0015965
 1,0.00020066,0.,0.00167844,-0.00038577,0.,-0.00095159,0.35045641,0.,0.
 ,0.00178082,0.,0.,0.00691400,0.,0.,-0.00089129,0.,0.,0.00819367,0.,0.,
 0.00184782,0.,0.,-0.03820137,0.,0.,-0.00280184,0.,0.,0.00024838,0.,0.,
 -0.00387210,0.,0.,0.02699871,-0.00828744,0.00272884,0.,0.00796784,-0.0
 4413532,0.,-0.07410109,-0.00364352,0.,0.00226332,0.03770214,0.,-0.0082
 3005,-0.00227032,0.,0.00371582,-0.00042541,0.,0.00051838,-0.00160407,0
 .,0.00297641,0.00159597,0.,0.00048467,0.00121352,0.,0.00049277,0.00005
 168,0.,0.06614921,-0.00412596,0.00098953,0.,-0.00532987,-0.04073160,0.
 ,0.00059694,-0.31597677,0.,-0.00810468,-0.05221591,0.,0.00724978,0.000
 52128,0.,-0.00158232,-0.00564281,0.,0.00161981,-0.00043670,0.,0.001604
 20,0.00142123,0.,-0.00190045,0.00002702,0.,0.00000964,0.00108774,0.,0.
 00620101,0.40125205,0.,0.,0.00686635,0.,0.,0.00649225,0.,0.,-0.0394669
 0,0.,0.,0.00795216,0.,0.,0.00637904,0.,0.,-0.00266543,0.,0.,0.00055420
 ,0.,0.,-0.00387936,0.,0.,0.00073084,0.,0.,-0.00075830,0.,0.,0.02223532
 ,-0.00244536,-0.00509756,0.,-0.00382817,0.00977822,0.,-0.05141444,-0.0
 3909750,0.,-0.25420113,-0.10338725,0.,-0.00719804,-0.01405938,0.,-0.00
 071025,0.00021487,0.,0.00092667,0.00024204,0.,0.00043881,-0.00191867,0
 .,0.00045084,0.00014690,0.,-0.00021451,0.00120142,0.,0.00605017,0.0037
 6191,0.,0.31214540,-0.00397277,0.00051945,0.,0.00026890,-0.00388110,0.
 ,0.00670333,0.00145523,0.,-0.10760764,-0.13589849,0.,-0.05287884,-0.02
 562154,0.,0.00708928,-0.00658648,0.,0.00029796,0.00066748,0.,0.0011858
 9,0.00006968,0.,0.00013413,0.00397820,0.,-0.00202072,0.00028495,0.,0.0
 0258547,0.00970495,0.,0.14821501,0.15530767,0.,0.,-0.00268256,0.,0.,0.
 00638527,0.,0.,0.00795171,0.,0.,-0.03946903,0.,0.,0.00648650,0.,0.,0.0
 0689655,0.,0.,-0.00075397,0.,0.,0.00073202,0.,0.,-0.00388353,0.,0.,0.0
 0054150,0.,0.,-0.00444019,0.,0.,0.02223574\\-0.00000100,-0.00029513,0.
 ,-0.00012067,0.00040545,0.,0.00004692,-0.00024401,0.,-0.00023404,-0.00
 007988,0.,0.00041513,0.00010225,0.,-0.00025673,-0.00014805,0.,0.000090
 35,0.00003780,0.,0.00009633,-0.00008450,0.,-0.00012207,0.00004051,0.,-
 0.00001096,0.00009730,0.,0.00001747,0.00010311,0.,0.00007927,0.0000651
 5,0.\\\@


 THE WHOLE OF SCIENCE IS NOTHING MORE THAN A REFINEMENT OF EVERYDAY THINKING.
                                                              -- A. EINSTEIN
 Job cpu time:       0 days  0 hours  8 minutes 35.2 seconds.
 Elapsed time:       0 days  0 hours  8 minutes 36.0 seconds.
 File lengths (MBytes):  RWF=    114 Int=      0 D2E=      0 Chk=      7 Scr=      1
 Normal termination of Gaussian 16 at Wed Jan 29 15:51:01 2025.
