1 2-DFB SP                                                              
SP        RPBE1PBE                                                    6-311++G(d,p)       
Number of atoms                            I               12
Info1-9                                    I   N=           9
          19          19           0           0           0         110
           1          18        -302
Full Title                                 C   N=           1
1 2-DFB SP  
Route                                      C   N=           4
#p PBE1PBE/6-311++G(d,p) density=current nosymm 
Charge                                     I                0
Multiplicity                               I                1
Number of electrons                        I               58
Number of alpha electrons                  I               29
Number of beta electrons                   I               29
Number of basis functions                  I              204
Number of independent functions            I              204
Number of point charges in /Mol/           I                0
Number of translation vectors              I                0
Atomic numbers                             I   N=          12
           6           6           6           6           6           6
           1           1           1           1           9           9
Nuclear charges                            R   N=          12
  6.00000000E+00  6.00000000E+00  6.00000000E+00  6.00000000E+00  6.00000000E+00
  6.00000000E+00  1.00000000E+00  1.00000000E+00  1.00000000E+00  1.00000000E+00
  9.00000000E+00  9.00000000E+00
Current cartesian coordinates              R   N=          36
  2.26994186E+00  1.30539592E+00  0.00000000E+00  2.28000742E+00 -1.32241870E+00
  1.88972612E-09  7.55042908E-03 -2.60993325E+00  0.00000000E+00 -2.26371657E+00
 -1.29838442E+00  0.00000000E+00 -2.28506908E+00  1.31339534E+00  0.00000000E+00
 -4.49825493E-03  2.61870173E+00  0.00000000E+00  4.04848205E+00  2.32220702E+00
  0.00000000E+00  4.02354992E+00 -2.39803190E+00  0.00000000E+00 -4.08858240E+00
  2.28507302E+00  0.00000000E+00 -1.32939890E-02  4.66735058E+00  0.00000000E+00
 -2.89853865E-02 -5.13349979E+00 -1.88972612E-09 -4.43116938E+00 -2.59125703E+00
  1.88972612E-09
Number of symbols in /Mol/                 I                0
Force Field                                I                0
Atom Types                                 C   N=          12
                                                            
                                                            
                        
Int Atom Types                             I   N=          12
           0           0           0           0           0           0
           0           0           0           0           0           0
MM charges                                 R   N=          12
  0.00000000E+00  0.00000000E+00  0.00000000E+00  0.00000000E+00  0.00000000E+00
  0.00000000E+00  0.00000000E+00  0.00000000E+00  0.00000000E+00  0.00000000E+00
  0.00000000E+00  0.00000000E+00
Integer atomic weights                     I   N=          12
          12          12          12          12          12          12
           1           1           1           1          19          19
Real atomic weights                        R   N=          12
  1.20000000E+01  1.20000000E+01  1.20000000E+01  1.20000000E+01  1.20000000E+01
  1.20000000E+01  1.00782504E+00  1.00782504E+00  1.00782504E+00  1.00782504E+00
  1.89984032E+01  1.89984032E+01
Atom fragment info                         I   N=          12
           0           0           0           0           0           0
           0           0           0           0           0           0
Atom residue num                           I   N=          12
           0           0           0           0           0           0
           0           0           0           0           0           0
Nuclear spins                              I   N=          12
           0           0           0           0           0           0
           1           1           1           1           1           1
Nuclear ZEff                               R   N=          12
 -3.60000000E+00 -3.60000000E+00 -3.60000000E+00 -3.60000000E+00 -3.60000000E+00
 -3.60000000E+00 -1.00000000E+00 -1.00000000E+00 -1.00000000E+00 -1.00000000E+00
 -6.75000000E+00 -6.75000000E+00
Nuclear ZNuc                               R   N=          12
  6.00000000E+00  6.00000000E+00  6.00000000E+00  6.00000000E+00  6.00000000E+00
  6.00000000E+00  1.00000000E+00  1.00000000E+00  1.00000000E+00  1.00000000E+00
  9.00000000E+00  9.00000000E+00
Nuclear QMom                               R   N=          12
  0.00000000E+00  0.00000000E+00  0.00000000E+00  0.00000000E+00  0.00000000E+00
  0.00000000E+00  0.00000000E+00  0.00000000E+00  0.00000000E+00  0.00000000E+00
  0.00000000E+00  0.00000000E+00
Nuclear GFac                               R   N=          12
  0.00000000E+00  0.00000000E+00  0.00000000E+00  0.00000000E+00  0.00000000E+00
  0.00000000E+00  2.79284600E+00  2.79284600E+00  2.79284600E+00  2.79284600E+00
  2.62886700E+00  2.62886700E+00
MicOpt                                     I   N=          12
          -1          -1          -1          -1          -1          -1
          -1          -1          -1          -1          -1          -1
Number of residues                         I                0
Number of secondary structures             I                0
SymInf integers                            I   N=          26
           1           2           1           1           1           1
           1          -1           0           0           0           0
           0           0           0           0           0           0
           0           0           0           0           0           0
           0           0
RotTr to input orientation                 R   N=          12
 -1.32307095E-01  9.91208773E-01  0.00000000E+00 -9.91208773E-01 -1.32307095E-01
  0.00000000E+00  0.00000000E+00  0.00000000E+00  1.00000000E+00 -6.23205905E-01
 -1.07940815E+00  1.95488909E-10
Number of contracted shells                I               68
Number of primitive shells                 I              132
Pure/Cartesian d shells                    I                0
Pure/Cartesian f shells                    I                0
Highest angular momentum                   I                2
Largest degree of contraction              I                6
Shell types                                I   N=          68
           0          -1          -1          -1          -1          -2
           0          -1          -1          -1          -1          -2
           0          -1          -1          -1          -1          -2
           0          -1          -1          -1          -1          -2
           0          -1          -1          -1          -1          -2
           0          -1          -1          -1          -1          -2
           0           0           0           0           1           0
           0           0           0           1           0           0
           0           0           1           0           0           0
           0           1           0          -1          -1          -1
          -1          -2           0          -1          -1          -1
          -1          -2
Number of primitives per shell             I   N=          68
           6           3           1           1           1           1
           6           3           1           1           1           1
           6           3           1           1           1           1
           6           3           1           1           1           1
           6           3           1           1           1           1
           6           3           1           1           1           1
           3           1           1           1           1           3
           1           1           1           1           3           1
           1           1           1           3           1           1
           1           1           6           3           1           1
           1           1           6           3           1           1
           1           1
Shell to atom map                          I   N=          68
           1           1           1           1           1           1
           2           2           2           2           2           2
           3           3           3           3           3           3
           4           4           4           4           4           4
           5           5           5           5           5           5
           6           6           6           6           6           6
           7           7           7           7           7           8
           8           8           8           8           9           9
           9           9           9          10          10          10
          10          10          11          11          11          11
          11          11          12          12          12          12
          12          12
Primitive exponents                        R   N=         132
  4.56324000E+03  6.82024000E+02  1.54973000E+02  4.44553000E+01  1.30290000E+01
  1.82773000E+00  2.09642000E+01  4.80331000E+00  1.45933000E+00  4.83456000E-01
  1.45585000E-01  4.38000000E-02  6.26000000E-01  4.56324000E+03  6.82024000E+02
  1.54973000E+02  4.44553000E+01  1.30290000E+01  1.82773000E+00  2.09642000E+01
  4.80331000E+00  1.45933000E+00  4.83456000E-01  1.45585000E-01  4.38000000E-02
  6.26000000E-01  4.56324000E+03  6.82024000E+02  1.54973000E+02  4.44553000E+01
  1.30290000E+01  1.82773000E+00  2.09642000E+01  4.80331000E+00  1.45933000E+00
  4.83456000E-01  1.45585000E-01  4.38000000E-02  6.26000000E-01  4.56324000E+03
  6.82024000E+02  1.54973000E+02  4.44553000E+01  1.30290000E+01  1.82773000E+00
  2.09642000E+01  4.80331000E+00  1.45933000E+00  4.83456000E-01  1.45585000E-01
  4.38000000E-02  6.26000000E-01  4.56324000E+03  6.82024000E+02  1.54973000E+02
  4.44553000E+01  1.30290000E+01  1.82773000E+00  2.09642000E+01  4.80331000E+00
  1.45933000E+00  4.83456000E-01  1.45585000E-01  4.38000000E-02  6.26000000E-01
  4.56324000E+03  6.82024000E+02  1.54973000E+02  4.44553000E+01  1.30290000E+01
  1.82773000E+00  2.09642000E+01  4.80331000E+00  1.45933000E+00  4.83456000E-01
  1.45585000E-01  4.38000000E-02  6.26000000E-01  3.38650000E+01  5.09479000E+00
  1.15879000E+00  3.25840000E-01  1.02741000E-01  3.60000000E-02  7.50000000E-01
  3.38650000E+01  5.09479000E+00  1.15879000E+00  3.25840000E-01  1.02741000E-01
  3.60000000E-02  7.50000000E-01  3.38650000E+01  5.09479000E+00  1.15879000E+00
  3.25840000E-01  1.02741000E-01  3.60000000E-02  7.50000000E-01  3.38650000E+01
  5.09479000E+00  1.15879000E+00  3.25840000E-01  1.02741000E-01  3.60000000E-02
  7.50000000E-01  1.14271000E+04  1.72235000E+03  3.95746000E+02  1.15139000E+02
  3.36026000E+01  4.91901000E+00  5.54441000E+01  1.26323000E+01  3.71756000E+00
  1.16545000E+00  3.21892000E-01  1.07600000E-01  1.75000000E+00  1.14271000E+04
  1.72235000E+03  3.95746000E+02  1.15139000E+02  3.36026000E+01  4.91901000E+00
  5.54441000E+01  1.26323000E+01  3.71756000E+00  1.16545000E+00  3.21892000E-01
  1.07600000E-01  1.75000000E+00
Contraction coefficients                   R   N=         132
  1.96665025E-03  1.52306019E-02  7.61269097E-02  2.60801033E-01  6.16462078E-01
  2.21006028E-01  1.14660081E-01  9.19999648E-01 -3.03068213E-03  1.00000000E+00
  1.00000000E+00  1.00000000E+00  1.00000000E+00  1.96665025E-03  1.52306019E-02
  7.61269097E-02  2.60801033E-01  6.16462078E-01  2.21006028E-01  1.14660081E-01
  9.19999648E-01 -3.03068213E-03  1.00000000E+00  1.00000000E+00  1.00000000E+00
  1.00000000E+00  1.96665025E-03  1.52306019E-02  7.61269097E-02  2.60801033E-01
  6.16462078E-01  2.21006028E-01  1.14660081E-01  9.19999648E-01 -3.03068213E-03
  1.00000000E+00  1.00000000E+00  1.00000000E+00  1.00000000E+00  1.96665025E-03
  1.52306019E-02  7.61269097E-02  2.60801033E-01  6.16462078E-01  2.21006028E-01
  1.14660081E-01  9.19999648E-01 -3.03068213E-03  1.00000000E+00  1.00000000E+00
  1.00000000E+00  1.00000000E+00  1.96665025E-03  1.52306019E-02  7.61269097E-02
  2.60801033E-01  6.16462078E-01  2.21006028E-01  1.14660081E-01  9.19999648E-01
 -3.03068213E-03  1.00000000E+00  1.00000000E+00  1.00000000E+00  1.00000000E+00
  1.96665025E-03  1.52306019E-02  7.61269097E-02  2.60801033E-01  6.16462078E-01
  2.21006028E-01  1.14660081E-01  9.19999648E-01 -3.03068213E-03  1.00000000E+00
  1.00000000E+00  1.00000000E+00  1.00000000E+00  2.54938145E-02  1.90373109E-01
  8.52161486E-01  1.00000000E+00  1.00000000E+00  1.00000000E+00  1.00000000E+00
  2.54938145E-02  1.90373109E-01  8.52161486E-01  1.00000000E+00  1.00000000E+00
  1.00000000E+00  1.00000000E+00  2.54938145E-02  1.90373109E-01  8.52161486E-01
  1.00000000E+00  1.00000000E+00  1.00000000E+00  1.00000000E+00  2.54938145E-02
  1.90373109E-01  8.52161486E-01  1.00000000E+00  1.00000000E+00  1.00000000E+00
  1.00000000E+00  1.80093016E-03  1.37419012E-02  6.81334059E-02  2.33325020E-01
  5.89086051E-01  2.99505026E-01  1.14536016E-01  9.20512125E-01 -3.37804046E-03
  1.00000000E+00  1.00000000E+00  1.00000000E+00  1.00000000E+00  1.80093016E-03
  1.37419012E-02  6.81334059E-02  2.33325020E-01  5.89086051E-01  2.99505026E-01
  1.14536016E-01  9.20512125E-01 -3.37804046E-03  1.00000000E+00  1.00000000E+00
  1.00000000E+00  1.00000000E+00
P(S=P) Contraction coefficients            R   N=         132
  0.00000000E+00  0.00000000E+00  0.00000000E+00  0.00000000E+00  0.00000000E+00
  0.00000000E+00  4.02486927E-02  2.37593957E-01  8.15853851E-01  1.00000000E+00
  1.00000000E+00  1.00000000E+00  0.00000000E+00  0.00000000E+00  0.00000000E+00
  0.00000000E+00  0.00000000E+00  0.00000000E+00  0.00000000E+00  4.02486927E-02
  2.37593957E-01  8.15853851E-01  1.00000000E+00  1.00000000E+00  1.00000000E+00
  0.00000000E+00  0.00000000E+00  0.00000000E+00  0.00000000E+00  0.00000000E+00
  0.00000000E+00  0.00000000E+00  4.02486927E-02  2.37593957E-01  8.15853851E-01
  1.00000000E+00  1.00000000E+00  1.00000000E+00  0.00000000E+00  0.00000000E+00
  0.00000000E+00  0.00000000E+00  0.00000000E+00  0.00000000E+00  0.00000000E+00
  4.02486927E-02  2.37593957E-01  8.15853851E-01  1.00000000E+00  1.00000000E+00
  1.00000000E+00  0.00000000E+00  0.00000000E+00  0.00000000E+00  0.00000000E+00
  0.00000000E+00  0.00000000E+00  0.00000000E+00  4.02486927E-02  2.37593957E-01
  8.15853851E-01  1.00000000E+00  1.00000000E+00  1.00000000E+00  0.00000000E+00
  0.00000000E+00  0.00000000E+00  0.00000000E+00  0.00000000E+00  0.00000000E+00
  0.00000000E+00  4.02486927E-02  2.37593957E-01  8.15853851E-01  1.00000000E+00
  1.00000000E+00  1.00000000E+00  0.00000000E+00  0.00000000E+00  0.00000000E+00
  0.00000000E+00  0.00000000E+00  0.00000000E+00  0.00000000E+00  0.00000000E+00
  0.00000000E+00  0.00000000E+00  0.00000000E+00  0.00000000E+00  0.00000000E+00
  0.00000000E+00  0.00000000E+00  0.00000000E+00  0.00000000E+00  0.00000000E+00
  0.00000000E+00  0.00000000E+00  0.00000000E+00  0.00000000E+00  0.00000000E+00
  0.00000000E+00  0.00000000E+00  0.00000000E+00  0.00000000E+00  0.00000000E+00
  0.00000000E+00  0.00000000E+00  0.00000000E+00  0.00000000E+00  0.00000000E+00
  0.00000000E+00  0.00000000E+00  3.54608874E-02  2.37450915E-01  8.20457708E-01
  1.00000000E+00  1.00000000E+00  1.00000000E+00  0.00000000E+00  0.00000000E+00
  0.00000000E+00  0.00000000E+00  0.00000000E+00  0.00000000E+00  0.00000000E+00
  3.54608874E-02  2.37450915E-01  8.20457708E-01  1.00000000E+00  1.00000000E+00
  1.00000000E+00  0.00000000E+00
Coordinates of each shell                  R   N=         204
  2.26994186E+00  1.30539592E+00  0.00000000E+00  2.26994186E+00  1.30539592E+00
  0.00000000E+00  2.26994186E+00  1.30539592E+00  0.00000000E+00  2.26994186E+00
  1.30539592E+00  0.00000000E+00  2.26994186E+00  1.30539592E+00  0.00000000E+00
  2.26994186E+00  1.30539592E+00  0.00000000E+00  2.28000742E+00 -1.32241870E+00
  1.88972612E-09  2.28000742E+00 -1.32241870E+00  1.88972612E-09  2.28000742E+00
 -1.32241870E+00  1.88972612E-09  2.28000742E+00 -1.32241870E+00  1.88972612E-09
  2.28000742E+00 -1.32241870E+00  1.88972612E-09  2.28000742E+00 -1.32241870E+00
  1.88972612E-09  7.55042908E-03 -2.60993325E+00  0.00000000E+00  7.55042908E-03
 -2.60993325E+00  0.00000000E+00  7.55042908E-03 -2.60993325E+00  0.00000000E+00
  7.55042908E-03 -2.60993325E+00  0.00000000E+00  7.55042908E-03 -2.60993325E+00
  0.00000000E+00  7.55042908E-03 -2.60993325E+00  0.00000000E+00 -2.26371657E+00
 -1.29838442E+00  0.00000000E+00 -2.26371657E+00 -1.29838442E+00  0.00000000E+00
 -2.26371657E+00 -1.29838442E+00  0.00000000E+00 -2.26371657E+00 -1.29838442E+00
  0.00000000E+00 -2.26371657E+00 -1.29838442E+00  0.00000000E+00 -2.26371657E+00
 -1.29838442E+00  0.00000000E+00 -2.28506908E+00  1.31339534E+00  0.00000000E+00
 -2.28506908E+00  1.31339534E+00  0.00000000E+00 -2.28506908E+00  1.31339534E+00
  0.00000000E+00 -2.28506908E+00  1.31339534E+00  0.00000000E+00 -2.28506908E+00
  1.31339534E+00  0.00000000E+00 -2.28506908E+00  1.31339534E+00  0.00000000E+00
 -4.49825493E-03  2.61870173E+00  0.00000000E+00 -4.49825493E-03  2.61870173E+00
  0.00000000E+00 -4.49825493E-03  2.61870173E+00  0.00000000E+00 -4.49825493E-03
  2.61870173E+00  0.00000000E+00 -4.49825493E-03  2.61870173E+00  0.00000000E+00
 -4.49825493E-03  2.61870173E+00  0.00000000E+00  4.04848205E+00  2.32220702E+00
  0.00000000E+00  4.04848205E+00  2.32220702E+00  0.00000000E+00  4.04848205E+00
  2.32220702E+00  0.00000000E+00  4.04848205E+00  2.32220702E+00  0.00000000E+00
  4.04848205E+00  2.32220702E+00  0.00000000E+00  4.02354992E+00 -2.39803190E+00
  0.00000000E+00  4.02354992E+00 -2.39803190E+00  0.00000000E+00  4.02354992E+00
 -2.39803190E+00  0.00000000E+00  4.02354992E+00 -2.39803190E+00  0.00000000E+00
  4.02354992E+00 -2.39803190E+00  0.00000000E+00 -4.08858240E+00  2.28507302E+00
  0.00000000E+00 -4.08858240E+00  2.28507302E+00  0.00000000E+00 -4.08858240E+00
  2.28507302E+00  0.00000000E+00 -4.08858240E+00  2.28507302E+00  0.00000000E+00
 -4.08858240E+00  2.28507302E+00  0.00000000E+00 -1.32939890E-02  4.66735058E+00
  0.00000000E+00 -1.32939890E-02  4.66735058E+00  0.00000000E+00 -1.32939890E-02
  4.66735058E+00  0.00000000E+00 -1.32939890E-02  4.66735058E+00  0.00000000E+00
 -1.32939890E-02  4.66735058E+00  0.00000000E+00 -2.89853865E-02 -5.13349979E+00
 -1.88972612E-09 -2.89853865E-02 -5.13349979E+00 -1.88972612E-09 -2.89853865E-02
 -5.13349979E+00 -1.88972612E-09 -2.89853865E-02 -5.13349979E+00 -1.88972612E-09
 -2.89853865E-02 -5.13349979E+00 -1.88972612E-09 -2.89853865E-02 -5.13349979E+00
 -1.88972612E-09 -4.43116938E+00 -2.59125703E+00  1.88972612E-09 -4.43116938E+00
 -2.59125703E+00  1.88972612E-09 -4.43116938E+00 -2.59125703E+00  1.88972612E-09
 -4.43116938E+00 -2.59125703E+00  1.88972612E-09 -4.43116938E+00 -2.59125703E+00
  1.88972612E-09 -4.43116938E+00 -2.59125703E+00  1.88972612E-09
Num ILSW                                   I              100
ILSW                                       I   N=         100
           0           0           0           0           2           0
           0           0           0           0        1009          -1
           5           0           0           0           0           0
           0           0           0           0           0           0
           1           1           0           0           0           0
           0           0      100000           0          -1           0
           0           0           0           0           0           0
           0           0           0           1           0           0
           0 -2000000000           1           0           0           0
           0           0           4          52           0           0
           0           0          13           0           0           0
           0           0           0          12           0           1
           0           0           0           0           0           0
           0           0           0           0           0           0
           0           0           0           0           0           0
           0           0           0           0           0           0
           0           0           0           0
Num RLSW                                   I               52
RLSW                                       R   N=          52
  7.50000000E-01  7.50000000E-01  1.00000000E+00  1.00000000E+00  2.50000000E-01
  0.00000000E+00  0.00000000E+00  1.00000000E+00  0.00000000E+00  0.00000000E+00
  0.00000000E+00  0.00000000E+00  1.00000000E+00  0.00000000E+00  0.00000000E+00
  0.00000000E+00  0.00000000E+00  1.00000000E+00  0.00000000E+00  0.00000000E+00
  0.00000000E+00  0.00000000E+00  1.00000000E+00  0.00000000E+00  0.00000000E+00
  0.00000000E+00  0.00000000E+00  1.00000000E+00  0.00000000E+00  0.00000000E+00
  0.00000000E+00  0.00000000E+00  1.00000000E+00  0.00000000E+00  0.00000000E+00
  0.00000000E+00  0.00000000E+00  0.00000000E+00  1.00000000E+00  1.00000000E+00
  0.00000000E+00  1.00000000E+00  0.00000000E+00  0.00000000E+00  0.00000000E+00
  0.00000000E+00  0.00000000E+00  0.00000000E+00  0.00000000E+00  0.00000000E+00
  0.00000000E+00  0.00000000E+00
MxBond                                     I                3
NBond                                      I   N=          12
           3           3           3           3           3           3
           1           1           1           1           1           1
IBond                                      I   N=          36
           2           6           7           1           3           8
           2           4          11           3           5          12
           4           6           9           1           5          10
           1           0           0           2           0           0
           5           0           0           6           0           0
           3           0           0           4           0           0
RBond                                      R   N=          36
  1.50000000E+00  1.50000000E+00  1.00000000E+00  1.50000000E+00  1.50000000E+00
  1.00000000E+00  1.50000000E+00  1.50000000E+00  1.00000000E+00  1.50000000E+00
  1.50000000E+00  1.00000000E+00  1.50000000E+00  1.50000000E+00  1.00000000E+00
  1.50000000E+00  1.50000000E+00  1.00000000E+00  1.00000000E+00  0.00000000E+00
  0.00000000E+00  1.00000000E+00  0.00000000E+00  0.00000000E+00  1.00000000E+00
  0.00000000E+00  0.00000000E+00  1.00000000E+00  0.00000000E+00  0.00000000E+00
  1.00000000E+00  0.00000000E+00  0.00000000E+00  1.00000000E+00  0.00000000E+00
  0.00000000E+00
Virial Ratio                               R      2.003164881667834E+00
SCF Energy                                 R     -4.303722148082934E+02
Total Energy                               R     -4.303722148082934E+02
RMS Density                                R      5.944477494420701E-09
Job Status                                 I                1
Nuclear derivative order                   I                0
External E-field                           R   N=          35
  0.00000000E+00  0.00000000E+00  0.00000000E+00  0.00000000E+00  0.00000000E+00
  0.00000000E+00  0.00000000E+00  0.00000000E+00  0.00000000E+00  0.00000000E+00
  0.00000000E+00  0.00000000E+00  0.00000000E+00  0.00000000E+00  0.00000000E+00
  0.00000000E+00  0.00000000E+00  0.00000000E+00  0.00000000E+00  0.00000000E+00
  0.00000000E+00  0.00000000E+00  0.00000000E+00  0.00000000E+00  0.00000000E+00
  0.00000000E+00  0.00000000E+00  0.00000000E+00  0.00000000E+00  0.00000000E+00
  0.00000000E+00  0.00000000E+00  0.00000000E+00  0.00000000E+00  0.00000000E+00
IOpCl                                      I                0
IROHF                                      I                0
Alpha Orbital Energies                     R   N=         204
 -2.47958956E+01 -2.47958845E+01 -1.03280333E+01 -1.03274270E+01 -1.02511488E+01
 -1.02511294E+01 -1.02485957E+01 -1.02479909E+01 -1.28798592E+00 -1.27405682E+00
 -9.13265012E-01 -8.01285002E-01 -7.93092933E-01 -6.72986268E-01 -6.58438752E-01
 -5.97001616E-01 -5.62338863E-01 -5.46724966E-01 -5.19635013E-01 -5.01929144E-01
 -4.85105524E-01 -4.74615301E-01 -4.61300378E-01 -4.30438926E-01 -4.01109744E-01
 -3.90472308E-01 -3.81950758E-01 -2.87118030E-01 -2.72098685E-01 -2.76328894E-02
 -1.52748450E-02 -7.99241061E-04  1.55474761E-02  1.70121992E-02  3.67530942E-02
  4.37158462E-02  6.36663720E-02  8.10690745E-02  8.94479083E-02  9.13957464E-02
  9.78034190E-02  1.03360205E-01  1.13159066E-01  1.24171578E-01  1.26565848E-01
  1.29432176E-01  1.33796853E-01  1.36875532E-01  1.41723643E-01  1.42730878E-01
  1.53356447E-01  1.55924314E-01  1.58419024E-01  1.65635619E-01  1.95416069E-01
  2.04358828E-01  2.06037350E-01  2.12567309E-01  2.19609451E-01  2.36766097E-01
  2.51015102E-01  2.64064414E-01  2.74307001E-01  2.90729669E-01  2.97967343E-01
  2.99938805E-01  3.07200659E-01  3.32197359E-01  3.36803179E-01  3.52550571E-01
  3.63448344E-01  3.76535674E-01  3.95337859E-01  3.95773487E-01  4.12269887E-01
  4.34102094E-01  4.49892035E-01  4.99591055E-01  5.16182589E-01  5.17969190E-01
  5.25570076E-01  5.40161268E-01  5.58660571E-01  5.73360991E-01  5.75544533E-01
  5.89575083E-01  5.94772561E-01  5.94898557E-01  6.17401254E-01  6.31593872E-01
  6.90944954E-01  6.95791345E-01  7.28899713E-01  7.41222869E-01  7.76970957E-01
  8.00396443E-01  8.02794605E-01  8.46322505E-01  8.54767461E-01  8.63869823E-01
  8.77095395E-01  8.87421979E-01  9.20692767E-01  9.42077773E-01  9.69405619E-01
  9.78596981E-01  1.00731519E+00  1.01312794E+00  1.06380177E+00  1.07649496E+00
  1.10126171E+00  1.14981392E+00  1.18875084E+00  1.29287896E+00  1.32306644E+00
  1.41459558E+00  1.42264203E+00  1.44294087E+00  1.46031607E+00  1.47319771E+00
  1.50937107E+00  1.52532964E+00  1.54524723E+00  1.55925784E+00  1.56716688E+00
  1.56791079E+00  1.59814970E+00  1.63863441E+00  1.65218207E+00  1.68883607E+00
  1.71949815E+00  1.73172957E+00  1.79842769E+00  1.84171641E+00  1.89758857E+00
  1.90106577E+00  1.90543101E+00  1.90720423E+00  1.95395869E+00  1.95569820E+00
  2.01168080E+00  2.03020132E+00  2.03524712E+00  2.04143252E+00  2.12968131E+00
  2.15680484E+00  2.24805523E+00  2.26166140E+00  2.31987998E+00  2.32876451E+00
  2.43054003E+00  2.47790336E+00  2.56144220E+00  2.59686748E+00  2.63306916E+00
  2.70204513E+00  2.72261624E+00  2.74146994E+00  2.76750282E+00  2.77046661E+00
  2.79005609E+00  2.79094000E+00  2.82838093E+00  2.88329478E+00  2.88341081E+00
  2.89480756E+00  3.08974824E+00  3.14551496E+00  3.16845901E+00  3.23477168E+00
  3.36024567E+00  3.39065708E+00  3.51654275E+00  3.54678212E+00  3.73544666E+00
  3.76291081E+00  3.78509278E+00  3.80013753E+00  3.86695158E+00  3.89974037E+00
  3.97701459E+00  4.03457457E+00  4.05974110E+00  4.06361112E+00  4.11202311E+00
  4.15787656E+00  4.22853980E+00  4.81411461E+00  4.87035691E+00  4.96815520E+00
  6.33413332E+00  6.38999622E+00  6.44186153E+00  6.53698305E+00  6.71427977E+00
  6.89444196E+00  2.36042079E+01  2.40123584E+01  2.40259237E+01  2.41564556E+01
  2.41905332E+01  2.42899537E+01  6.69262047E+01  6.69753975E+01
Alpha MO coefficients                      R   N=       41616
  1.54276156E-06 -6.13746044E-06 -1.65400431E-05 -4.76163900E-05 -6.85757776E-14
  1.98687031E-04  8.42892633E-05  2.53393619E-04  3.08323463E-13 -8.71240429E-03
  3.29878313E-03  3.05242540E-03 -5.12721789E-12 -5.16628627E-02  1.21413367E-02
  4.66290610E-03 -9.58189245E-12  3.68362505E-05  4.81840982E-13  4.05463155E-13
  5.64759663E-05 -1.83368531E-05 -6.30053171E-06  2.78401367E-05  4.47527915E-05
 -3.56041458E-05 -1.02113394E-15 -3.33539562E-04 -2.19028516E-04  1.43170049E-04
  1.71616678E-14  1.02771594E-02 -5.79157489E-03  4.87944892E-03 -3.32308321E-12
  4.64110600E-02 -1.26432816E-02  6.49018345E-03  2.69098247E-12 -4.65536308E-05
  5.80508328E-13 -7.97451583E-13  5.10848689E-05 -7.24277966E-05  2.53056709E-05
 -1.07818505E-04  1.03515793E-05 -1.24291116E-04 -2.85322022E-13  7.82619893E-04
 -6.15329734E-05 -1.55954601E-04  6.81996095E-13 -7.76765953E-03 -2.49238371E-04
 -1.23416782E-02 -8.48740553E-12 -5.85086082E-02  4.40578324E-03 -8.07580841E-03
 -1.50580197E-11 -1.10386659E-04 -2.22764364E-14 -2.31013354E-14  1.23776500E-05
 -1.76105827E-05 -1.34081088E-05  5.80595322E-05  3.55400548E-05 -1.79562162E-05
 -2.12079471E-13 -4.89315917E-04 -4.08489923E-06  1.84535189E-04  6.28569739E-13
  9.24387242E-03  8.49989815E-03  5.95349341E-03 -1.22663478E-12  4.45728146E-02
  8.87869437E-03 -2.54552434E-03  3.37036659E-12 -6.45558885E-06  4.62816002E-13
 -8.06583381E-14  1.67046364E-05  8.01333570E-05  2.01484401E-06 -8.93596285E-06
  4.63973903E-05 -5.30554117E-05 -8.62208629E-14  2.26436672E-04 -2.22312668E-04
  2.94700255E-04  3.31969349E-13 -9.83105805E-03 -4.76079364E-03  2.82600302E-03
 -4.78903258E-13 -3.00506981E-02 -8.06101200E-03  3.17445045E-03 -3.93882877E-12
  3.69508469E-05 -2.29127429E-14  6.17461214E-14  4.46323315E-05  4.18857113E-05
 -4.35349593E-06  1.78532319E-05  1.54638334E-05  1.67647974E-05 -8.09381124E-14
 -2.49861289E-04 -8.19319983E-05 -7.62570297E-05  3.07181455E-13  6.98792945E-03
 -4.00588028E-04 -4.14597201E-03  2.35671420E-13  4.63595961E-02  1.91798873E-03
 -1.04365869E-02  2.61998912E-12 -3.88939981E-05  2.50816271E-13  2.05802630E-13
 -1.09211975E-06  2.14204158E-05  2.36432014E-05 -3.59233680E-04 -1.11175897E-03
 -2.85337931E-03  3.22037092E-05 -1.57106477E-05  4.87395528E-13 -9.09837650E-05
  1.07181605E-03  2.50469690E-03  3.68899650E-03 -5.03790343E-05  3.04259884E-05
  9.47059540E-13  3.94881521E-05 -6.44832967E-04 -1.37122060E-03 -1.31157666E-03
 -5.50376720E-05  8.58961671E-06  8.90068106E-14 -4.70009185E-05  4.39776232E-04