 Entering Gaussian System, Link 0=g16
 Initial command:
 /sw/cluster/pub/apps//g16/l1.exe "/data/natrosa/28463/Gau-17727.inp" -scrdir="/data/natrosa/28463/"
 Entering Link 1 = /sw/cluster/pub/apps//g16/l1.exe PID=     17728.
  
 Copyright (c) 1988,1990,1992,1993,1995,1998,2003,2009,2016,
            Gaussian, Inc.  All Rights Reserved.
  
 This is part of the Gaussian(R) 16 program.  It is based on
 the Gaussian(R) 09 system (copyright 2009, Gaussian, Inc.),
 the Gaussian(R) 03 system (copyright 2003, Gaussian, Inc.),
 the Gaussian(R) 98 system (copyright 1998, Gaussian, Inc.),
 the Gaussian(R) 94 system (copyright 1995, Gaussian, Inc.),
 the Gaussian 92(TM) system (copyright 1992, Gaussian, Inc.),
 the Gaussian 90(TM) system (copyright 1990, Gaussian, Inc.),
 the Gaussian 88(TM) system (copyright 1988, Gaussian, Inc.),
 the Gaussian 86(TM) system (copyright 1986, Carnegie Mellon
 University), and the Gaussian 82(TM) system (copyright 1983,
 Carnegie Mellon University). Gaussian is a federally registered
 trademark of Gaussian, Inc.
  
 This software contains proprietary and confidential information,
 including trade secrets, belonging to Gaussian, Inc.
  
 This software is provided under written license and may be
 used, copied, transmitted, or stored only in accord with that
 written license.
  
 The following legend is applicable only to US Government
 contracts under FAR:
  
                    RESTRICTED RIGHTS LEGEND
  
 Use, reproduction and disclosure by the US Government is
 subject to restrictions as set forth in subparagraphs (a)
 and (c) of the Commercial Computer Software - Restricted
 Rights clause in FAR 52.227-19.
  
 Gaussian, Inc.
 340 Quinnipiac St., Bldg. 40, Wallingford CT 06492
  
  
 ---------------------------------------------------------------
 Warning -- This program may not be used in any manner that
 competes with the business of Gaussian, Inc. or will provide
 assistance to any competitor of Gaussian, Inc.  The licensee
 of this program is prohibited from giving any competitor of
 Gaussian, Inc. access to this program.  By using this program,
 the user acknowledges that Gaussian, Inc. is engaged in the
 business of creating and licensing software in the field of
 computational chemistry and represents and warrants to the
 licensee that it is not a competitor of Gaussian, Inc. and that
 it will not use this program in any manner prohibited above.
 ---------------------------------------------------------------
  

 Cite this work as:
 Gaussian 16, Revision A.03,
 M. J. Frisch, G. W. Trucks, H. B. Schlegel, G. E. Scuseria, 
 M. A. Robb, J. R. Cheeseman, G. Scalmani, V. Barone, 
 G. A. Petersson, H. Nakatsuji, X. Li, M. Caricato, A. V. Marenich, 
 J. Bloino, B. G. Janesko, R. Gomperts, B. Mennucci, H. P. Hratchian, 
 J. V. Ortiz, A. F. Izmaylov, J. L. Sonnenberg, D. Williams-Young, 
 F. Ding, F. Lipparini, F. Egidi, J. Goings, B. Peng, A. Petrone, 
 T. Henderson, D. Ranasinghe, V. G. Zakrzewski, J. Gao, N. Rega, 
 G. Zheng, W. Liang, M. Hada, M. Ehara, K. Toyota, R. Fukuda, 
 J. Hasegawa, M. Ishida, T. Nakajima, Y. Honda, O. Kitao, H. Nakai, 
 T. Vreven, K. Throssell, J. A. Montgomery, Jr., J. E. Peralta, 
 F. Ogliaro, M. J. Bearpark, J. J. Heyd, E. N. Brothers, K. N. Kudin, 
 V. N. Staroverov, T. A. Keith, R. Kobayashi, J. Normand, 
 K. Raghavachari, A. P. Rendell, J. C. Burant, S. S. Iyengar, 
 J. Tomasi, M. Cossi, J. M. Millam, M. Klene, C. Adamo, R. Cammi, 
 J. W. Ochterski, R. L. Martin, K. Morokuma, O. Farkas, 
 J. B. Foresman, and D. J. Fox, Gaussian, Inc., Wallingford CT, 2016.
 
 ******************************************
 Gaussian 16:  ES64L-G16RevA.03 25-Dec-2016
                29-Jan-2025 
 ******************************************
 %chk=1-3-DFB-ANI.chk
 --------------------------------------------------------
 #p opt freq PBE1PBE/6-311++G(d,p) density=current nosymm
 --------------------------------------------------------
 1/18=20,19=15,26=3,38=1/1,3;
 2/9=110,12=2,15=1,17=6,18=5,40=1/2;
 3/5=4,6=6,7=1111,11=2,25=1,30=1,71=1,74=-13/1,2,3;
 4//1;
 5/5=2,38=5/2;
 6/7=2,8=2,9=2,10=2,22=-1,28=1/1;
 7/30=1/1,2,3,16;
 1/18=20,19=15,26=3/3(2);
 2/9=110,15=1/2;
 99//99;
 2/9=110,15=1/2;
 3/5=4,6=6,7=1111,11=2,25=1,30=1,71=1,74=-13/1,2,3;
 4/5=5,16=3,69=1/1;
 5/5=2,38=5/2;
 7/30=1/1,2,3,16;
 1/18=20,19=15,26=3/3(-5);
 2/9=110,15=1/2;
 6/7=2,8=2,9=2,10=2,19=2,22=-1,28=1/1;
 99/9=1/99;
 Leave Link    1 at Wed Jan 29 15:48:30 2025, MaxMem=           0 cpu:               0.0 elap:               0.0
 (Enter /sw/cluster/pub/apps//g16/l101.exe)
 ----------
 1 3-DFB SP
 ----------
 Symbolic Z-matrix:
 Charge = -1 Multiplicity = 2
 C                     1.19746   0.69139  0. 
 C                     1.21126  -0.69862   0. 
 C                    -0.00207  -1.36383   0. 
 C                    -1.21803  -0.70327   0. 
 C                    -1.18206   0.68012   0. 
 C                     0.00062   1.3984    0. 
 H                     2.13668   1.23358  0. 
 H                     2.13562  -1.26299   0. 
 H                    -2.15562  -1.24443  0. 
 H                    -0.02589   2.48108   0. 
 F                    -0.00843  -2.70471   0. 
 F                    -2.3466    1.34486  0. 
 
 ITRead=  0  0  0  0  0  0  0  0  0  0  0  0
 MicOpt= -1 -1 -1 -1 -1 -1 -1 -1 -1 -1 -1 -1
 NAtoms=     12 NQM=       12 NQMF=       0 NMMI=      0 NMMIF=      0
                NMic=       0 NMicF=      0.
                    Isotopes and Nuclear Properties:
 (Nuclear quadrupole moments (NQMom) in fm**2, nuclear magnetic moments (NMagM)
  in nuclear magnetons)

  Atom         1           2           3           4           5           6           7           8           9          10
 IAtWgt=          12          12          12          12          12          12           1           1           1           1
 AtmWgt=  12.0000000  12.0000000  12.0000000  12.0000000  12.0000000  12.0000000   1.0078250   1.0078250   1.0078250   1.0078250
 NucSpn=           0           0           0           0           0           0           1           1           1           1
 AtZEff=  -0.0000000  -0.0000000  -0.0000000  -0.0000000  -0.0000000  -0.0000000  -0.0000000  -0.0000000  -0.0000000  -0.0000000
 NQMom=    0.0000000   0.0000000   0.0000000   0.0000000   0.0000000   0.0000000   0.0000000   0.0000000   0.0000000   0.0000000
 NMagM=    0.0000000   0.0000000   0.0000000   0.0000000   0.0000000   0.0000000   2.7928460   2.7928460   2.7928460   2.7928460
 AtZNuc=   6.0000000   6.0000000   6.0000000   6.0000000   6.0000000   6.0000000   1.0000000   1.0000000   1.0000000   1.0000000

  Atom        11          12
 IAtWgt=          19          19
 AtmWgt=  18.9984032  18.9984032
 NucSpn=           1           1
 AtZEff=  -0.0000000  -0.0000000
 NQMom=    0.0000000   0.0000000
 NMagM=    2.6288670   2.6288670
 AtZNuc=   9.0000000   9.0000000
 Leave Link  101 at Wed Jan 29 15:48:30 2025, MaxMem=   104857600 cpu:               0.0 elap:               0.0
 (Enter /sw/cluster/pub/apps//g16/l103.exe)

 GradGradGradGradGradGradGradGradGradGradGradGradGradGradGradGradGradGrad
 Berny optimization.
 Initialization pass.
                           ----------------------------
                           !    Initial Parameters    !
                           ! (Angstroms and Degrees)  !
 --------------------------                            --------------------------
 ! Name  Definition              Value          Derivative Info.                !
 --------------------------------------------------------------------------------
 ! R1    R(1,2)                  1.3901         estimate D2E/DX2                !
 ! R2    R(1,6)                  1.3901         estimate D2E/DX2                !
 ! R3    R(1,7)                  1.0845         estimate D2E/DX2                !
 ! R4    R(2,3)                  1.3837         estimate D2E/DX2                !
 ! R5    R(2,8)                  1.083          estimate D2E/DX2                !
 ! R6    R(3,4)                  1.3838         estimate D2E/DX2                !
 ! R7    R(3,11)                 1.3409         estimate D2E/DX2                !
 ! R8    R(4,5)                  1.3839         estimate D2E/DX2                !
 ! R9    R(4,9)                  1.0826         estimate D2E/DX2                !
 ! R10   R(5,6)                  1.3837         estimate D2E/DX2                !
 ! R11   R(5,12)                 1.3409         estimate D2E/DX2                !
 ! R12   R(6,10)                 1.083          estimate D2E/DX2                !
 ! A1    A(2,1,6)              121.1404         estimate D2E/DX2                !
 ! A2    A(2,1,7)              119.4276         estimate D2E/DX2                !
 ! A3    A(6,1,7)              119.432          estimate D2E/DX2                !
 ! A4    A(1,2,3)              118.1646         estimate D2E/DX2                !
 ! A5    A(1,2,8)              121.9751         estimate D2E/DX2                !
 ! A6    A(3,2,8)              119.8602         estimate D2E/DX2                !
 ! A7    A(2,3,4)              122.7539         estimate D2E/DX2                !
 ! A8    A(2,3,11)             119.0056         estimate D2E/DX2                !
 ! A9    A(4,3,11)             118.2406         estimate D2E/DX2                !
 ! A10   A(3,4,5)              117.0231         estimate D2E/DX2                !
 ! A11   A(3,4,9)              121.4945         estimate D2E/DX2                !
 ! A12   A(5,4,9)              121.4824         estimate D2E/DX2                !
 ! A13   A(4,5,6)              122.7609         estimate D2E/DX2                !
 ! A14   A(4,5,12)             118.2291         estimate D2E/DX2                !
 ! A15   A(6,5,12)             119.01           estimate D2E/DX2                !
 ! A16   A(1,6,5)              118.1571         estimate D2E/DX2                !
 ! A17   A(1,6,10)             121.9741         estimate D2E/DX2                !
 ! A18   A(5,6,10)             119.8688         estimate D2E/DX2                !
 ! D1    D(6,1,2,3)              0.0            estimate D2E/DX2                !
 ! D2    D(6,1,2,8)            180.0            estimate D2E/DX2                !
 ! D3    D(7,1,2,3)            180.0            estimate D2E/DX2                !
 ! D4    D(7,1,2,8)              0.0            estimate D2E/DX2                !
 ! D5    D(2,1,6,5)              0.0            estimate D2E/DX2                !
 ! D6    D(2,1,6,10)           180.0            estimate D2E/DX2                !
 ! D7    D(7,1,6,5)            180.0            estimate D2E/DX2                !
 ! D8    D(7,1,6,10)             0.0            estimate D2E/DX2                !
 ! D9    D(1,2,3,4)              0.0            estimate D2E/DX2                !
 ! D10   D(1,2,3,11)           180.0            estimate D2E/DX2                !
 ! D11   D(8,2,3,4)            180.0            estimate D2E/DX2                !
 ! D12   D(8,2,3,11)             0.0            estimate D2E/DX2                !
 ! D13   D(2,3,4,5)              0.0            estimate D2E/DX2                !
 ! D14   D(2,3,4,9)            180.0            estimate D2E/DX2                !
 ! D15   D(11,3,4,5)           180.0            estimate D2E/DX2                !
 ! D16   D(11,3,4,9)             0.0            estimate D2E/DX2                !
 ! D17   D(3,4,5,6)              0.0            estimate D2E/DX2                !
 ! D18   D(3,4,5,12)           180.0            estimate D2E/DX2                !
 ! D19   D(9,4,5,6)            180.0            estimate D2E/DX2                !
 ! D20   D(9,4,5,12)             0.0            estimate D2E/DX2                !
 ! D21   D(4,5,6,1)              0.0            estimate D2E/DX2                !
 ! D22   D(4,5,6,10)           180.0            estimate D2E/DX2                !
 ! D23   D(12,5,6,1)           180.0            estimate D2E/DX2                !
 ! D24   D(12,5,6,10)            0.0            estimate D2E/DX2                !
 --------------------------------------------------------------------------------
 Trust Radius=3.00D-01 FncErr=1.00D-07 GrdErr=1.00D-06 EigMax=2.50D+02 EigMin=1.00D-04
 Number of steps in this run=     64 maximum allowed number of steps=    100.
 GradGradGradGradGradGradGradGradGradGradGradGradGradGradGradGradGradGrad

 Leave Link  103 at Wed Jan 29 15:48:30 2025, MaxMem=   104857600 cpu:               0.0 elap:               0.0
 (Enter /sw/cluster/pub/apps//g16/l202.exe)
                          Input orientation:                          
 ---------------------------------------------------------------------
 Center     Atomic      Atomic             Coordinates (Angstroms)
 Number     Number       Type             X           Y           Z
 ---------------------------------------------------------------------
      1          6           0        1.197458    0.691394   -0.000000
      2          6           0        1.211262   -0.698622    0.000000
      3          6           0       -0.002068   -1.363826    0.000000
      4          6           0       -1.218033   -0.703267    0.000000
      5          6           0       -1.182063    0.680119    0.000000
      6          6           0        0.000622    1.398397    0.000000
      7          1           0        2.136679    1.233579   -0.000000
      8          1           0        2.135615   -1.262987    0.000000
      9          1           0       -2.155618   -1.244429   -0.000000
     10          1           0       -0.025888    2.481081    0.000000
     11          9           0       -0.008433   -2.704712    0.000000
     12          9           0       -2.346599    1.344857   -0.000000
 ---------------------------------------------------------------------
                    Distance matrix (angstroms):
                    1          2          3          4          5
     1  C    0.000000
     2  C    1.390085   0.000000
     3  C    2.379662   1.383714   0.000000
     4  C    2.789207   2.429299   1.383802   0.000000
     5  C    2.379548   2.762052   2.360106   1.383854   0.000000
     6  C    1.390061   2.421392   2.762224   2.429425   1.383715
     7  H    1.084482   2.142382   3.364632   3.873688   3.364576
     8  H    2.167890   1.083023   2.140061   3.400036   3.844822
     9  H    3.871761   3.410833   2.156857   1.082554   2.156779
    10  H    2.167846   3.411899   3.844981   3.400188   2.140141
    11  F    3.603847   2.347776   1.340901   2.338571   3.582526
    12  F    3.603797   4.102948   3.582428   2.338477   1.340902
                    6          7          8          9         10
     6  C    0.000000
     7  H    2.142407   0.000000
     8  H    3.411915   2.496566   0.000000
     9  H    3.410850   4.956242   4.291274   0.000000
    10  H    1.083009   2.496590   4.323210   4.291290   0.000000
    11  F    4.103119   4.484600   2.583702   2.596696   5.185822
    12  F    2.347831   4.484659   5.185663   2.596320   2.583931
                   11         12
    11  F    0.000000
    12  F    4.676113   0.000000
 Symmetry turned off by external request.
 Stoichiometry    C6H4F2(1-,2)
 Framework group  CS[SG(C6H4F2)]
 Deg. of freedom    21
 Full point group                 CS      NOp   2
 Rotational constants (GHZ):           3.7687127           1.7687449           1.2037819
 Leave Link  202 at Wed Jan 29 15:48:30 2025, MaxMem=   104857600 cpu:               0.0 elap:               0.0
 (Enter /sw/cluster/pub/apps//g16/l301.exe)
 Standard basis: 6-311++G(d,p) (5D, 7F)
 Ernie: Thresh=  0.10000D-02 Tol=  0.10000D-05 Strict=F.
   204 basis functions,   324 primitive gaussians,   212 cartesian basis functions
    30 alpha electrons       29 beta electrons
       nuclear repulsion energy       343.5582985214 Hartrees.
 IExCor= 1009 DFT=T Ex+Corr=PBE1PBE ExCW=0 ScaHFX=  0.250000
 ScaDFX=  0.750000  0.750000  1.000000  1.000000 ScalE2=  1.000000  1.000000
 IRadAn=      5 IRanWt=     -1 IRanGd=            0 ICorTp=0 IEmpDi=  4
 NAtoms=   12 NActive=   12 NUniq=   12 SFac= 1.00D+00 NAtFMM=   60 NAOKFM=F Big=F
 Integral buffers will be    131072 words long.
 Raffenetti 2 integral format.
 Two-electron integral symmetry is turned off.
 Leave Link  301 at Wed Jan 29 15:48:30 2025, MaxMem=   104857600 cpu:               0.0 elap:               0.0
 (Enter /sw/cluster/pub/apps//g16/l302.exe)
 NPDir=0 NMtPBC=     1 NCelOv=     1 NCel=       1 NClECP=     1 NCelD=      1
         NCelK=      1 NCelE2=     1 NClLst=     1 CellRange=     0.0.
 One-electron integrals computed using PRISM.
 NBasis=   204 RedAO= T EigKep=  2.14D-06  NBF=   204
 NBsUse=   204 1.00D-06 EigRej= -1.00D+00 NBFU=   204
 Precomputing XC quadrature grid using
 IXCGrd= 4 IRadAn=           5 IRanWt=          -1 IRanGd=           0 AccXCQ= 0.00D+00.
 Generated NRdTot=       0 NPtTot=           0 NUsed=           0 NTot=          32
 NSgBfM=   212   212   212   212   212 MxSgAt=    12 MxSgA2=    12.
 Leave Link  302 at Wed Jan 29 15:48:30 2025, MaxMem=   104857600 cpu:               0.1 elap:               0.1
 (Enter /sw/cluster/pub/apps//g16/l303.exe)
 DipDrv:  MaxL=1.
 Leave Link  303 at Wed Jan 29 15:48:30 2025, MaxMem=   104857600 cpu:               0.0 elap:               0.0
 (Enter /sw/cluster/pub/apps//g16/l401.exe)
 ExpMin= 3.60D-02 ExpMax= 1.14D+04 ExpMxC= 1.72D+03 IAcc=3 IRadAn=         5 AccDes= 0.00D+00
 Harris functional with IExCor= 1009 and IRadAn=       5 diagonalized for initial guess.
 HarFok:  IExCor= 1009 AccDes= 0.00D+00 IRadAn=         5 IDoV= 1 UseB2=F ITyADJ=14
 ICtDFT=  3500011 ScaDFX=  1.000000  1.000000  1.000000  1.000000
 FoFCou: FMM=F IPFlag=           0 FMFlag=      100000 FMFlg1=           0
         NFxFlg=           0 DoJE=T BraDBF=F KetDBF=T FulRan=T
         wScrn=  0.000000 ICntrl=       500 IOpCl=  0 I1Cent=   200000004 NGrid=           0
         NMat0=    1 NMatS0=      1 NMatT0=    0 NMatD0=    1 NMtDS0=    0 NMtDT0=    0
 Symmetry not used in FoFCou.
 Harris En= -430.603600255314    
 JPrj=0 DoOrth=F DoCkMO=F.
 Initial guess <Sx>= 0.0000 <Sy>= 0.0000 <Sz>= 0.5000 <S**2>= 0.7500 S= 0.5000
 Leave Link  401 at Wed Jan 29 15:48:31 2025, MaxMem=   104857600 cpu:               1.1 elap:               1.1
 (Enter /sw/cluster/pub/apps//g16/l502.exe)
 Two-electron integral symmetry not used.
 UHF open shell SCF:
 Using DIIS extrapolation, IDIIS=  1040.
 NGot=   104857600 LenX=   104764860 LenY=   104719475
 Requested convergence on RMS density matrix=1.00D-08 within 128 cycles.
 Requested convergence on MAX density matrix=1.00D-06.
 Requested convergence on             energy=1.00D-06.
 No special actions if energy rises.
 Fock matrices will be formed incrementally for  20 cycles.

 Cycle   1  Pass 1  IDiag  1:
 FoFJK:  IHMeth= 1 ICntrl=       0 DoSepK=F KAlg= 0 I1Cent=           0 FoldK=F
 IRaf= 970000000 NMat=       1 IRICut=       1 DoRegI=T DoRafI=F ISym2E= 0 IDoP0=0 IntGTp=1.
 FoFCou: FMM=F IPFlag=           0 FMFlag=      100000 FMFlg1=           0
         NFxFlg=           0 DoJE=F BraDBF=F KetDBF=F FulRan=T
         wScrn=  0.000000 ICntrl=         0 IOpCl=  1 I1Cent=           0 NGrid=           0
         NMat0=    1 NMatS0=      1 NMatT0=    0 NMatD0=    1 NMtDS0=    0 NMtDT0=    0
 Symmetry not used in FoFCou.
 E= -430.039187173388    
 DIIS: error= 3.63D-02 at cycle   1 NSaved=   1.
 NSaved= 1 IEnMin= 1 EnMin= -430.039187173388     IErMin= 1 ErrMin= 3.63D-02
 ErrMax= 3.63D-02  0.00D+00 EMaxC= 1.00D-01 BMatC= 1.19D+00 BMatP= 1.19D+00
 IDIUse=3 WtCom= 6.37D-01 WtEn= 3.63D-01
 Coeff-Com:  0.100D+01
 Coeff-En:   0.100D+01
 Coeff:      0.100D+01
 Gap=     0.014 Goal=   None    Shift=    0.000
 Gap=     0.303 Goal=   None    Shift=    0.000
 GapD=    0.014 DampG=0.250 DampE=0.500 DampFc=0.2500 IDamp=-1.
 Damping current iteration by 2.50D-01
 RMSDP=1.75D+01 MaxDP=1.07D+03              OVMax= 9.97D-01

 Cycle   2  Pass 1  IDiag  1:
 RMSU=  4.32D+00    CP:  3.00D+00
 E= -430.160320857988     Delta-E=       -0.121133684600 Rises=F Damp=T
 DIIS: error= 1.64D-02 at cycle   2 NSaved=   2.
 NSaved= 2 IEnMin= 2 EnMin= -430.160320857988     IErMin= 2 ErrMin= 1.64D-02
 ErrMax= 1.64D-02  0.00D+00 EMaxC= 1.00D-01 BMatC= 2.45D-01 BMatP= 1.19D+00
 IDIUse=3 WtCom= 8.36D-01 WtEn= 1.64D-01
 Coeff-Com: -0.606D+00 0.161D+01
 Coeff-En:   0.000D+00 0.100D+01
 Coeff:     -0.507D+00 0.151D+01
 Gap=     0.011 Goal=   None    Shift=    0.000
 Gap=     0.204 Goal=   None    Shift=    0.000
 RMSDP=6.83D+00 MaxDP=4.83D+02 DE=-1.21D-01 OVMax= 2.36D-01

 Cycle   3  Pass 1  IDiag  1:
 RMSU=  1.74D+00    CP:  3.00D+00  2.53D+00
 E= -430.325160001585     Delta-E=       -0.164839143597 Rises=F Damp=F
 DIIS: error= 1.27D-02 at cycle   3 NSaved=   3.
 NSaved= 3 IEnMin= 3 EnMin= -430.325160001585     IErMin= 3 ErrMin= 1.27D-02
 ErrMax= 1.27D-02  0.00D+00 EMaxC= 1.00D-01 BMatC= 7.70D-02 BMatP= 2.45D-01
 IDIUse=3 WtCom= 8.73D-01 WtEn= 1.27D-01
 Coeff-Com: -0.169D+00 0.613D+00 0.556D+00
 Coeff-En:   0.000D+00 0.000D+00 0.100D+01
 Coeff:     -0.147D+00 0.535D+00 0.612D+00
 Gap=     0.008 Goal=   None    Shift=    0.000
 Gap=     0.238 Goal=   None    Shift=    0.000
 RMSDP=2.71D+00 MaxDP=2.03D+02 DE=-1.65D-01 OVMax= 3.94D-01

 Cycle   4  Pass 1  IDiag  1:
 RMSU=  9.50D-01    CP:  3.00D+00  2.03D+00  2.25D-01
 E= -430.349860081413     Delta-E=       -0.024700079828 Rises=F Damp=F
 DIIS: error= 6.49D-03 at cycle   4 NSaved=   4.
 NSaved= 4 IEnMin= 4 EnMin= -430.349860081413     IErMin= 4 ErrMin= 6.49D-03
 ErrMax= 6.49D-03  0.00D+00 EMaxC= 1.00D-01 BMatC= 1.14D-02 BMatP= 7.70D-02
 IDIUse=3 WtCom= 9.35D-01 WtEn= 6.49D-02
 Coeff-Com:  0.511D-01-0.124D-01 0.279D+00 0.682D+00
 Coeff-En:   0.000D+00 0.000D+00 0.000D+00 0.100D+01
 Coeff:      0.477D-01-0.116D-01 0.261D+00 0.703D+00
 Gap=     0.023 Goal=   None    Shift=    0.000
 Gap=     0.246 Goal=   None    Shift=    0.000
 RMSDP=4.07D+00 MaxDP=2.66D+02 DE=-2.47D-02 OVMax= 2.57D-01

 Cycle   5  Pass 1  IDiag  1:
 RMSU=  1.33D-01    CP:  3.00D+00  1.09D+00  4.43D-02  1.21D+00
 E= -430.353758608030     Delta-E=       -0.003898526618 Rises=F Damp=F
 DIIS: error= 4.75D-03 at cycle   5 NSaved=   5.
 NSaved= 5 IEnMin= 5 EnMin= -430.353758608030     IErMin= 5 ErrMin= 4.75D-03
 ErrMax= 4.75D-03  0.00D+00 EMaxC= 1.00D-01 BMatC= 2.86D-03 BMatP= 1.14D-02
 IDIUse=3 WtCom= 9.53D-01 WtEn= 4.75D-02
 Coeff-Com:  0.129D-01 0.106D-01 0.113D+00 0.378D+00 0.486D+00
 Coeff-En:   0.000D+00 0.000D+00 0.000D+00 0.000D+00 0.100D+01
 Coeff:      0.123D-01 0.101D-01 0.108D+00 0.360D+00 0.510D+00
 Gap=     0.022 Goal=   None    Shift=    0.000
 Gap=     0.251 Goal=   None    Shift=    0.000
 RMSDP=3.16D-01 MaxDP=1.81D+01 DE=-3.90D-03 OVMax= 2.34D-02

 Cycle   6  Pass 1  IDiag  1:
 RMSU=  2.19D-02    CP:  3.00D+00  1.02D+00  5.85D-02  1.19D+00  1.13D+00
 E= -430.355040952137     Delta-E=       -0.001282344107 Rises=F Damp=F
 DIIS: error= 1.11D-03 at cycle   6 NSaved=   6.
 NSaved= 6 IEnMin= 6 EnMin= -430.355040952137     IErMin= 6 ErrMin= 1.11D-03
 ErrMax= 1.11D-03  0.00D+00 EMaxC= 1.00D-01 BMatC= 4.08D-04 BMatP= 2.86D-03
 IDIUse=3 WtCom= 9.89D-01 WtEn= 1.11D-02
 Coeff-Com: -0.359D-02 0.162D-01 0.193D-01-0.302D-01 0.121D+00 0.877D+00
 Coeff-En:   0.000D+00 0.000D+00 0.000D+00 0.000D+00 0.000D+00 0.100D+01
 Coeff:     -0.355D-02 0.160D-01 0.191D-01-0.299D-01 0.120D+00 0.878D+00
 Gap=     0.023 Goal=   None    Shift=    0.000
 Gap=     0.247 Goal=   None    Shift=    0.000
 RMSDP=1.40D+00 MaxDP=8.62D+01 DE=-1.28D-03 OVMax= 1.01D-01

 Cycle   7  Pass 1  IDiag  1:
 RMSU=  2.89D-02    CP:  3.00D+00  6.99D-01  3.69D-02  1.11D+00  1.42D+00
                    CP:  7.65D-01
 E= -430.355587207698     Delta-E=       -0.000546255561 Rises=F Damp=F
 DIIS: error= 1.17D-03 at cycle   7 NSaved=   7.
 NSaved= 7 IEnMin= 7 EnMin= -430.355587207698     IErMin= 6 ErrMin= 1.11D-03
 ErrMax= 1.17D-03  0.00D+00 EMaxC= 1.00D-01 BMatC= 3.61D-04 BMatP= 4.08D-04
 IDIUse=3 WtCom= 9.89D-01 WtEn= 1.11D-02
 Coeff-Com:  0.194D-02-0.231D-02 0.408D-02-0.953D-01-0.212D+00 0.547D+00
 Coeff-Com:  0.757D+00
 Coeff-En:   0.000D+00 0.000D+00 0.000D+00 0.000D+00 0.000D+00 0.000D+00
 Coeff-En:   0.100D+01
 Coeff:      0.192D-02-0.229D-02 0.403D-02-0.942D-01-0.209D+00 0.541D+00
 Coeff:      0.759D+00
 Gap=     0.025 Goal=   None    Shift=    0.000
 Gap=     0.246 Goal=   None    Shift=    0.000
 RMSDP=7.78D-01 MaxDP=4.69D+01 DE=-5.46D-04 OVMax= 6.21D-02

 Cycle   8  Pass 1  IDiag  1:
 RMSU=  5.71D-03    CP:  3.00D+00  5.20D-01  2.62D-02  1.03D+00  1.56D+00
                    CP:  4.68D-01  1.83D+00
 E= -430.355875295014     Delta-E=       -0.000288087315 Rises=F Damp=F
 DIIS: error= 6.19D-04 at cycle   8 NSaved=   8.
 NSaved= 8 IEnMin= 8 EnMin= -430.355875295014     IErMin= 8 ErrMin= 6.19D-04
 ErrMax= 6.19D-04  0.00D+00 EMaxC= 1.00D-01 BMatC= 7.43D-05 BMatP= 3.61D-04
 IDIUse=3 WtCom= 9.94D-01 WtEn= 6.19D-03
 Coeff-Com: -0.161D-02 0.362D-02-0.293D-02-0.521D-01-0.213D+00 0.108D+00
 Coeff-Com:  0.348D+00 0.810D+00
 Coeff-En:   0.000D+00 0.000D+00 0.000D+00 0.000D+00 0.000D+00 0.000D+00
 Coeff-En:   0.000D+00 0.100D+01
 Coeff:     -0.160D-02 0.360D-02-0.291D-02-0.518D-01-0.212D+00 0.108D+00
 Coeff:      0.346D+00 0.811D+00
 Gap=     0.025 Goal=   None    Shift=    0.000
 Gap=     0.246 Goal=   None    Shift=    0.000
 RMSDP=4.65D-01 MaxDP=2.81D+01 DE=-2.88D-04 OVMax= 4.68D-02

 Cycle   9  Pass 1  IDiag  1:
 RMSU=  5.95D-03    CP:  3.00D+00  4.13D-01  1.11D-02  9.56D-01  1.63D+00
                    CP:  1.63D-01  2.44D+00  2.37D+00
 E= -430.356012908785     Delta-E=       -0.000137613771 Rises=F Damp=F
 DIIS: error= 2.25D-04 at cycle   9 NSaved=   9.
 NSaved= 9 IEnMin= 9 EnMin= -430.356012908785     IErMin= 9 ErrMin= 2.25D-04
 ErrMax= 2.25D-04  0.00D+00 EMaxC= 1.00D-01 BMatC= 1.09D-05 BMatP= 7.43D-05
 IDIUse=3 WtCom= 9.98D-01 WtEn= 2.25D-03
 Coeff-Com: -0.602D-03 0.123D-02-0.144D-02-0.113D-01-0.528D-01 0.171D-01
 Coeff-Com:  0.162D-01-0.171D-01 0.105D+01
 Coeff-En:   0.000D+00 0.000D+00 0.000D+00 0.000D+00 0.000D+00 0.000D+00
 Coeff-En:   0.000D+00 0.000D+00 0.100D+01
 Coeff:     -0.601D-03 0.123D-02-0.143D-02-0.113D-01-0.527D-01 0.170D-01
 Coeff:      0.162D-01-0.171D-01 0.105D+01
 Gap=     0.026 Goal=   None    Shift=    0.000
 Gap=     0.246 Goal=   None    Shift=    0.000
 RMSDP=2.40D-01 MaxDP=1.56D+01 DE=-1.38D-04 OVMax= 3.82D-02

 Cycle  10  Pass 1  IDiag  1:
 RMSU=  4.87D-03    CP:  3.00D+00  3.60D-01 -1.28D-02  9.16D-01  1.68D+00
                    CP: -2.27D-01  2.73D+00  3.00D+00  3.00D+00
 E= -430.356085930454     Delta-E=       -0.000073021670 Rises=F Damp=F
 DIIS: error= 1.34D-04 at cycle  10 NSaved=  10.
 NSaved=10 IEnMin=10 EnMin= -430.356085930454     IErMin=10 ErrMin= 1.34D-04
 ErrMax= 1.34D-04  0.00D+00 EMaxC= 1.00D-01 BMatC= 7.46D-06 BMatP= 1.09D-05
 IDIUse=3 WtCom= 9.99D-01 WtEn= 1.34D-03
 Coeff-Com: -0.182D-03 0.171D-03-0.535D-03-0.317D-02 0.266D-02 0.234D-01
 Coeff-Com: -0.396D-01-0.324D+00 0.443D+00 0.898D+00
 Coeff-En:   0.000D+00 0.000D+00 0.000D+00 0.000D+00 0.000D+00 0.000D+00
 Coeff-En:   0.000D+00 0.000D+00 0.000D+00 0.100D+01
 Coeff:     -0.182D-03 0.170D-03-0.534D-03-0.317D-02 0.266D-02 0.234D-01
 Coeff:     -0.395D-01-0.324D+00 0.442D+00 0.898D+00
 Gap=     0.027 Goal=   None    Shift=    0.000
 Gap=     0.246 Goal=   None    Shift=    0.000
 RMSDP=1.54D-01 MaxDP=1.09D+01 DE=-7.30D-05 OVMax= 3.38D-02

 Cycle  11  Pass 1  IDiag  1:
 RMSU=  1.40D-02    CP:  3.00D+00  3.26D-01 -3.87D-02  8.90D-01  1.73D+00
                    CP: -6.46D-01  2.87D+00  3.00D+00  3.00D+00  3.00D+00
 E= -430.356140293127     Delta-E=       -0.000054362672 Rises=F Damp=F
 DIIS: error= 1.08D-04 at cycle  11 NSaved=  11.
 NSaved=11 IEnMin=11 EnMin= -430.356140293127     IErMin=11 ErrMin= 1.08D-04
 ErrMax= 1.08D-04  0.00D+00 EMaxC= 1.00D-01 BMatC= 3.65D-06 BMatP= 7.46D-06
 IDIUse=3 WtCom= 9.99D-01 WtEn= 1.08D-03
 Coeff-Com: -0.936D-03 0.123D-02-0.152D-02-0.894D-02-0.101D-01 0.273D-01
 Coeff-Com:  0.285D-01-0.639D-01-0.579D+00 0.757D-01 0.153D+01
 Coeff-En:   0.000D+00 0.000D+00 0.000D+00 0.000D+00 0.000D+00 0.000D+00
 Coeff-En:   0.000D+00 0.000D+00 0.000D+00 0.000D+00 0.100D+01
 Coeff:     -0.935D-03 0.123D-02-0.152D-02-0.893D-02-0.101D-01 0.273D-01
 Coeff:      0.285D-01-0.638D-01-0.578D+00 0.756D-01 0.153D+01
 Gap=     0.030 Goal=   None    Shift=    0.000
 Gap=     0.246 Goal=   None    Shift=    0.000
 RMSDP=1.61D-01 MaxDP=1.25D+01 DE=-5.44D-05 OVMax= 4.96D-02

 Cycle  12  Pass 1  IDiag  1:
 RMSU=  1.61D-02    CP:  3.00D+00  2.95D-01 -8.23D-02  8.67D-01  1.80D+00
                    CP: -1.37D+00  2.91D+00  3.00D+00  3.00D+00  3.00D+00
                    CP:  3.00D+00
 E= -430.356194662530     Delta-E=       -0.000054369403 Rises=F Damp=F
 DIIS: error= 5.14D-05 at cycle  12 NSaved=  12.
 NSaved=12 IEnMin=12 EnMin= -430.356194662530     IErMin=12 ErrMin= 5.14D-05
 ErrMax= 5.14D-05  0.00D+00 EMaxC= 1.00D-01 BMatC= 7.51D-07 BMatP= 3.65D-06
 IDIUse=1 WtCom= 1.00D+00 WtEn= 0.00D+00
 Coeff-Com:  0.473D-04-0.712D-04-0.964D-03-0.389D-02-0.110D-01 0.774D-02
 Coeff-Com:  0.364D-01 0.157D+00-0.134D+00-0.378D+00 0.286D+00 0.104D+01
 Coeff:      0.473D-04-0.712D-04-0.964D-03-0.389D-02-0.110D-01 0.774D-02
 Coeff:      0.364D-01 0.157D+00-0.134D+00-0.378D+00 0.286D+00 0.104D+01
 Gap=     0.030 Goal=   None    Shift=    0.000
 Gap=     0.246 Goal=   None    Shift=    0.000
 RMSDP=6.26D-02 MaxDP=6.10D+00 DE=-5.44D-05 OVMax= 1.22D-02

 Cycle  13  Pass 1  IDiag  1:
 RMSU=  1.25D-02    CP:  3.00D+00  3.06D-01 -1.01D-01  8.83D-01  1.81D+00
                    CP: -1.63D+00  2.79D+00  3.00D+00  3.00D+00  3.00D+00
                    CP:  3.00D+00  1.51D+00
 E= -430.356201617726     Delta-E=       -0.000006955196 Rises=F Damp=F
 DIIS: error= 4.94D-05 at cycle  13 NSaved=  13.
 NSaved=13 IEnMin=13 EnMin= -430.356201617726     IErMin=13 ErrMin= 4.94D-05
 ErrMax= 4.94D-05  0.00D+00 EMaxC= 1.00D-01 BMatC= 4.98D-07 BMatP= 7.51D-07
 IDIUse=1 WtCom= 1.00D+00 WtEn= 0.00D+00
 Coeff-Com: -0.381D-04 0.903D-04-0.153D-03-0.430D-03-0.961D-03 0.290D-02
 Coeff-Com: -0.812D-02-0.528D-01 0.113D+00 0.422D-01-0.358D+00 0.421D-01
 Coeff-Com:  0.122D+01
 Coeff:     -0.381D-04 0.903D-04-0.153D-03-0.430D-03-0.961D-03 0.290D-02
 Coeff:     -0.812D-02-0.528D-01 0.113D+00 0.422D-01-0.358D+00 0.421D-01
 Coeff:      0.122D+01
 Gap=     0.031 Goal=   None    Shift=    0.000
 Gap=     0.246 Goal=   None    Shift=    0.000
 RMSDP=3.12D-02 MaxDP=3.16D+00 DE=-6.96D-06 OVMax= 1.43D-02

 Cycle  14  Pass 1  IDiag  1:
 RMSU=  1.28D-03    CP:  3.00D+00  3.05D-01 -1.17D-01  8.85D-01  1.83D+00
                    CP: -1.85D+00  2.74D+00  3.00D+00  3.00D+00  3.00D+00
                    CP:  3.00D+00  2.06D+00  1.83D+00
 E= -430.356205108644     Delta-E=       -0.000003490917 Rises=F Damp=F
 DIIS: error= 2.17D-05 at cycle  14 NSaved=  14.
 NSaved=14 IEnMin=14 EnMin= -430.356205108644     IErMin=14 ErrMin= 2.17D-05
 ErrMax= 2.17D-05  0.00D+00 EMaxC= 1.00D-01 BMatC= 6.87D-08 BMatP= 4.98D-07
 IDIUse=1 WtCom= 1.00D+00 WtEn= 0.00D+00
 Coeff-Com: -0.183D-04-0.102D-04 0.112D-03 0.886D-04 0.211D-02 0.619D-03
 Coeff-Com: -0.443D-02-0.317D-01 0.135D-01 0.799D-01 0.270D-01-0.297D+00
 Coeff-Com:  0.856D-01 0.112D+01
 Coeff:     -0.183D-04-0.102D-04 0.112D-03 0.886D-04 0.211D-02 0.619D-03
 Coeff:     -0.443D-02-0.317D-01 0.135D-01 0.799D-01 0.270D-01-0.297D+00
 Coeff:      0.856D-01 0.112D+01
 Gap=     0.031 Goal=   None    Shift=    0.000
 Gap=     0.246 Goal=   None    Shift=    0.000
 RMSDP=1.65D-02 MaxDP=1.10D+00 DE=-3.49D-06 OVMax= 9.76D-04

 Cycle  15  Pass 1  IDiag  1:
 RMSU=  3.52D-04    CP:  3.00D+00  3.08D-01 -1.19D-01  8.89D-01  1.83D+00
                    CP: -1.85D+00  2.72D+00  3.00D+00  3.00D+00  3.00D+00
                    CP:  3.00D+00  2.11D+00  1.97D+00  1.18D+00
 E= -430.356205216017     Delta-E=       -0.000000107373 Rises=F Damp=F
 DIIS: error= 4.40D-06 at cycle  15 NSaved=  15.
 NSaved=15 IEnMin=15 EnMin= -430.356205216017     IErMin=15 ErrMin= 4.40D-06
 ErrMax= 4.40D-06  0.00D+00 EMaxC= 1.00D-01 BMatC= 1.21D-08 BMatP= 6.87D-08
 IDIUse=1 WtCom= 1.00D+00 WtEn= 0.00D+00
 Coeff-Com:  0.137D-04-0.147D-04 0.107D-03-0.682D-04-0.237D-03 0.394D-03
 Coeff-Com:  0.141D-02 0.255D-02 0.201D-02 0.494D-02 0.147D-01-0.968D-01
 Coeff-Com: -0.581D-01 0.497D+00 0.632D+00
 Coeff:      0.137D-04-0.147D-04 0.107D-03-0.682D-04-0.237D-03 0.394D-03
 Coeff:      0.141D-02 0.255D-02 0.201D-02 0.494D-02 0.147D-01-0.968D-01
 Coeff:     -0.581D-01 0.497D+00 0.632D+00
 Gap=     0.031 Goal=   None    Shift=    0.000
 Gap=     0.246 Goal=   None    Shift=    0.000
 RMSDP=4.63D-03 MaxDP=4.80D-01 DE=-1.07D-07 OVMax= 8.31D-04

 Cycle  16  Pass 1  IDiag  1:
 RMSU=  1.30D-04    CP:  3.00D+00  3.09D-01 -1.20D-01  8.90D-01  1.83D+00
                    CP: -1.86D+00  2.71D+00  3.00D+00  3.00D+00  3.00D+00
                    CP:  3.00D+00  2.16D+00  2.05D+00  1.26D+00  1.08D+00
 E= -430.356205246027     Delta-E=       -0.000000030011 Rises=F Damp=F
 DIIS: error= 5.36D-06 at cycle  16 NSaved=  16.
 NSaved=16 IEnMin=16 EnMin= -430.356205246027     IErMin=15 ErrMin= 4.40D-06
 ErrMax= 5.36D-06  0.00D+00 EMaxC= 1.00D-01 BMatC= 7.72D-09 BMatP= 1.21D-08
 IDIUse=1 WtCom= 1.00D+00 WtEn= 0.00D+00
 Coeff-Com:  0.365D-05 0.886D-05 0.234D-04-0.140D-03-0.106D-02 0.240D-03
 Coeff-Com:  0.201D-02 0.861D-02 0.514D-03-0.208D-01-0.173D-01 0.223D-01
 Coeff-Com: -0.202D-01 0.331D-01 0.374D+00 0.619D+00
 Coeff:      0.365D-05 0.886D-05 0.234D-04-0.140D-03-0.106D-02 0.240D-03
 Coeff:      0.201D-02 0.861D-02 0.514D-03-0.208D-01-0.173D-01 0.223D-01
 Coeff:     -0.202D-01 0.331D-01 0.374D+00 0.619D+00
 Gap=     0.031 Goal=   None    Shift=    0.000
 Gap=     0.246 Goal=   None    Shift=    0.000
 RMSDP=2.80D-03 MaxDP=2.27D-01 DE=-3.00D-08 OVMax= 1.03D-03

 Cycle  17  Pass 1  IDiag  1:
 RMSU=  8.02D-05    CP:  3.00D+00  3.09D-01 -1.22D-01  8.90D-01  1.83D+00
                    CP: -1.87D+00  2.70D+00  3.00D+00  3.00D+00  3.00D+00
                    CP:  3.00D+00  2.21D+00  2.12D+00  1.36D+00  1.06D+00
                    CP:  1.42D+00
 E= -430.356205256777     Delta-E=       -0.000000010749 Rises=F Damp=F
 DIIS: error= 1.66D-06 at cycle  17 NSaved=  17.
 NSaved=17 IEnMin=17 EnMin= -430.356205256777     IErMin=17 ErrMin= 1.66D-06
 ErrMax= 1.66D-06  0.00D+00 EMaxC= 1.00D-01 BMatC= 7.56D-10 BMatP= 7.72D-09
 IDIUse=1 WtCom= 1.00D+00 WtEn= 0.00D+00
 Coeff-Com: -0.381D-05 0.732D-05-0.392D-04-0.627D-04-0.416D-03-0.174D-04
 Coeff-Com:  0.529D-03 0.308D-02-0.129D-02-0.953D-02-0.265D-02 0.417D-01
 Coeff-Com: -0.379D-02-0.163D+00-0.286D-01 0.267D+00 0.897D+00
 Coeff:     -0.381D-05 0.732D-05-0.392D-04-0.627D-04-0.416D-03-0.174D-04
 Coeff:      0.529D-03 0.308D-02-0.129D-02-0.953D-02-0.265D-02 0.417D-01
 Coeff:     -0.379D-02-0.163D+00-0.286D-01 0.267D+00 0.897D+00
 Gap=     0.031 Goal=   None    Shift=    0.000
 Gap=     0.246 Goal=   None    Shift=    0.000
 RMSDP=6.29D-04 MaxDP=3.42D-02 DE=-1.07D-08 OVMax= 2.07D-04

 Cycle  18  Pass 1  IDiag  1:
 RMSU=  3.12D-05    CP:  3.00D+00  3.09D-01 -1.22D-01  8.90D-01  1.83D+00
                    CP: -1.87D+00  2.70D+00  3.00D+00  3.00D+00  3.00D+00
                    CP:  3.00D+00  2.21D+00  2.13D+00  1.39D+00  1.12D+00
                    CP:  1.70D+00  1.19D+00
 E= -430.356205258943     Delta-E=       -0.000000002167 Rises=F Damp=F
 DIIS: error= 1.91D-06 at cycle  18 NSaved=  18.
 NSaved=18 IEnMin=18 EnMin= -430.356205258943     IErMin=17 ErrMin= 1.66D-06
 ErrMax= 1.91D-06  0.00D+00 EMaxC= 1.00D-01 BMatC= 5.08D-10 BMatP= 7.56D-10
 IDIUse=1 WtCom= 1.00D+00 WtEn= 0.00D+00
 Coeff-Com:  0.312D-05-0.668D-05-0.161D-04 0.155D-04 0.164D-03-0.682D-04
 Coeff-Com: -0.135D-03-0.166D-03-0.237D-03 0.251D-02 0.107D-01 0.723D-02
 Coeff-Com: -0.100D-01-0.642D-01-0.116D+00-0.786D-01 0.415D+00 0.834D+00
 Coeff:      0.312D-05-0.668D-05-0.161D-04 0.155D-04 0.164D-03-0.682D-04
 Coeff:     -0.135D-03-0.166D-03-0.237D-03 0.251D-02 0.107D-01 0.723D-02
 Coeff:     -0.100D-01-0.642D-01-0.116D+00-0.786D-01 0.415D+00 0.834D+00
 Gap=     0.031 Goal=   None    Shift=    0.000
 Gap=     0.246 Goal=   None    Shift=    0.000
 RMSDP=1.77D-03 MaxDP=1.23D-01 DE=-2.17D-09 OVMax= 4.91D-04

 Cycle  19  Pass 1  IDiag  1:
 RMSU=  3.26D-06    CP:  3.00D+00  3.09D-01 -1.21D-01  8.90D-01  1.83D+00
                    CP: -1.86D+00  2.70D+00  3.00D+00  3.00D+00  3.00D+00
                    CP:  3.00D+00  2.20D+00  2.11D+00  1.38D+00  1.20D+00
                    CP:  1.74D+00  1.24D+00  1.45D+00
 E= -430.356205258169     Delta-E=        0.000000000775 Rises=F Damp=F
 DIIS: error= 1.54D-06 at cycle  19 NSaved=  19.
 NSaved=19 IEnMin=18 EnMin= -430.356205258943     IErMin=19 ErrMin= 1.54D-06
 ErrMax= 1.54D-06  0.00D+00 EMaxC= 1.00D-01 BMatC= 5.24D-10 BMatP= 5.08D-10
 IDIUse=1 WtCom= 1.00D+00 WtEn= 0.00D+00
 Coeff-Com: -0.199D-06-0.136D-06 0.579D-05 0.768D-05 0.114D-03 0.958D-05
 Coeff-Com: -0.206D-03-0.106D-02 0.768D-03 0.207D-02-0.218D-02-0.984D-02
 Coeff-Com:  0.514D-02 0.411D-01-0.289D-01-0.133D+00-0.140D+00 0.377D+00
 Coeff-Com:  0.889D+00
 Coeff:     -0.199D-06-0.136D-06 0.579D-05 0.768D-05 0.114D-03 0.958D-05
 Coeff:     -0.206D-03-0.106D-02 0.768D-03 0.207D-02-0.218D-02-0.984D-02
 Coeff:      0.514D-02 0.411D-01-0.289D-01-0.133D+00-0.140D+00 0.377D+00
 Coeff:      0.889D+00
 Gap=     0.031 Goal=   None    Shift=    0.000
 Gap=     0.246 Goal=   None    Shift=    0.000
 RMSDP=8.38D-04 MaxDP=6.47D-02 DE= 7.75D-10 OVMax= 3.29D-04

 Cycle  20  Pass 1  IDiag  1:
 RMSU=  2.13D-06    CP:  3.00D+00  3.09D-01 -1.22D-01  8.90D-01  1.83D+00
                    CP: -1.86D+00  2.69D+00  3.00D+00  3.00D+00  3.00D+00
                    CP:  3.00D+00  2.21D+00  2.13D+00  1.40D+00  1.18D+00
                    CP:  1.84D+00  1.35D+00  1.32D+00  1.65D+00
 E= -430.356205259822     Delta-E=       -0.000000001654 Rises=F Damp=F
 DIIS: error= 2.17D-07 at cycle  20 NSaved=  20.
 NSaved=20 IEnMin=20 EnMin= -430.356205259822     IErMin=20 ErrMin= 2.17D-07
 ErrMax= 2.17D-07  0.00D+00 EMaxC= 1.00D-01 BMatC= 8.55D-12 BMatP= 5.08D-10
 IDIUse=1 WtCom= 1.00D+00 WtEn= 0.00D+00
 Coeff-Com: -0.187D-05 0.282D-05-0.957D-08 0.211D-05-0.882D-05-0.275D-05
 Coeff-Com:  0.107D-04 0.279D-04-0.441D-04 0.749D-03 0.123D-02-0.115D-02
 Coeff-Com: -0.240D-02 0.255D-02 0.155D-01 0.288D-01-0.158D-01-0.203D+00
 Coeff-Com: -0.269D+00 0.144D+01
 Coeff:     -0.187D-05 0.282D-05-0.957D-08 0.211D-05-0.882D-05-0.275D-05
 Coeff:      0.107D-04 0.279D-04-0.441D-04 0.749D-03 0.123D-02-0.115D-02
 Coeff:     -0.240D-02 0.255D-02 0.155D-01 0.288D-01-0.158D-01-0.203D+00
 Coeff:     -0.269D+00 0.144D+01
 Gap=     0.031 Goal=   None    Shift=    0.000
 Gap=     0.246 Goal=   None    Shift=    0.000
 RMSDP=2.39D-04 MaxDP=1.94D-02 DE=-1.65D-09 OVMax= 7.55D-05

 Cycle  21  Pass 1  IDiag  1:
 Restarting incremental Fock formation.
 E= -430.356205259790     Delta-E=        0.000000000032 Rises=F Damp=F
 DIIS: error= 3.73D-07 at cycle  21 NSaved=  20.
 NSaved=20 IEnMin=19 EnMin= -430.356205259822     IErMin=19 ErrMin= 2.17D-07
 ErrMax= 3.73D-07  0.00D+00 EMaxC= 1.00D-01 BMatC= 2.27D-11 BMatP= 8.55D-12
 IDIUse=1 WtCom= 1.00D+00 WtEn= 0.00D+00
 Coeff-Com:  0.199D-06-0.104D-05-0.372D-05-0.872D-05 0.738D-05 0.664D-05
 Coeff-Com:  0.167D-04-0.464D-04-0.179D-03 0.165D-03 0.155D-02-0.138D-02
 Coeff-Com: -0.418D-02 0.145D-02 0.732D-02 0.245D-01 0.122D-01-0.246D+00
 Coeff-Com: -0.126D+00 0.133D+01
 Coeff:      0.199D-06-0.104D-05-0.372D-05-0.872D-05 0.738D-05 0.664D-05
 Coeff:      0.167D-04-0.464D-04-0.179D-03 0.165D-03 0.155D-02-0.138D-02
 Coeff:     -0.418D-02 0.145D-02 0.732D-02 0.245D-01 0.122D-01-0.246D+00
 Coeff:     -0.126D+00 0.133D+01
 Gap=     0.031 Goal=   None    Shift=    0.000
 Gap=     0.246 Goal=   None    Shift=    0.000
 RMSDP=2.15D-04 MaxDP=1.47D-02 DE= 3.22D-11 OVMax= 5.65D-05

 Cycle  22  Pass 1  IDiag  1:
 RMSU=  1.27D-04    CP:  1.00D+00
 E= -430.356205259847     Delta-E=       -0.000000000057 Rises=F Damp=F
 DIIS: error= 2.82D-08 at cycle  22 NSaved=  20.
 NSaved=20 IEnMin=20 EnMin= -430.356205259847     IErMin=20 ErrMin= 2.82D-08
 ErrMax= 2.82D-08  0.00D+00 EMaxC= 1.00D-01 BMatC= 1.80D-13 BMatP= 8.55D-12
 IDIUse=1 WtCom= 1.00D+00 WtEn= 0.00D+00
 Coeff-Com:  0.534D-07 0.130D-05 0.936D-05 0.501D-06-0.354D-05-0.914D-05
 Coeff-Com:  0.237D-05 0.373D-05 0.380D-04 0.304D-04-0.407D-04-0.285D-03
 Coeff-Com: -0.218D-02-0.385D-02 0.368D-02 0.295D-01 0.454D-01-0.201D+00
 Coeff-Com: -0.127D+00 0.126D+01
 Coeff:      0.534D-07 0.130D-05 0.936D-05 0.501D-06-0.354D-05-0.914D-05
 Coeff:      0.237D-05 0.373D-05 0.380D-04 0.304D-04-0.407D-04-0.285D-03
 Coeff:     -0.218D-02-0.385D-02 0.368D-02 0.295D-01 0.454D-01-0.201D+00
 Coeff:     -0.127D+00 0.126D+01
 Gap=     0.031 Goal=   None    Shift=    0.000
 Gap=     0.246 Goal=   None    Shift=    0.000
 RMSDP=3.74D-05 MaxDP=3.56D-03 DE=-5.70D-11 OVMax= 3.66D-06

 Cycle  23  Pass 1  IDiag  1:
 RMSU=  1.71D-05    CP:  1.00D+00  9.59D-01
 E= -430.356205259847     Delta-E=        0.000000000000 Rises=F Damp=F
 DIIS: error= 2.42D-08 at cycle  23 NSaved=  20.
 NSaved=20 IEnMin=19 EnMin= -430.356205259847     IErMin=20 ErrMin= 2.42D-08
 ErrMax= 2.42D-08  0.00D+00 EMaxC= 1.00D-01 BMatC= 8.04D-14 BMatP= 1.80D-13
 IDIUse=1 WtCom= 1.00D+00 WtEn= 0.00D+00
 Coeff-Com: -0.610D-06-0.317D-05 0.157D-05 0.460D-05 0.124D-04-0.870D-05
 Coeff-Com: -0.161D-04 0.162D-04 0.636D-05 0.217D-04-0.204D-04-0.103D-03
 Coeff-Com: -0.122D-03-0.146D-02-0.251D-02 0.183D-01 0.266D-01-0.149D+00
 Coeff-Com: -0.126D-01 0.112D+01
 Coeff:     -0.610D-06-0.317D-05 0.157D-05 0.460D-05 0.124D-04-0.870D-05
 Coeff:     -0.161D-04 0.162D-04 0.636D-05 0.217D-04-0.204D-04-0.103D-03
 Coeff:     -0.122D-03-0.146D-02-0.251D-02 0.183D-01 0.266D-01-0.149D+00
 Coeff:     -0.126D-01 0.112D+01
 Gap=     0.031 Goal=   None    Shift=    0.000
 Gap=     0.246 Goal=   None    Shift=    0.000
 RMSDP=1.66D-05 MaxDP=9.57D-04 DE= 4.55D-13 OVMax= 1.25D-06

 Cycle  24  Pass 1  IDiag  1:
 RMSU=  9.51D-07    CP:  1.00D+00  9.85D-01  1.19D+00
 E= -430.356205259849     Delta-E=       -0.000000000002 Rises=F Damp=F
 DIIS: error= 4.16D-09 at cycle  24 NSaved=  20.
 NSaved=20 IEnMin=20 EnMin= -430.356205259849     IErMin=20 ErrMin= 4.16D-09
 ErrMax= 4.16D-09  0.00D+00 EMaxC= 1.00D-01 BMatC= 3.58D-15 BMatP= 8.04D-14
 IDIUse=1 WtCom= 1.00D+00 WtEn= 0.00D+00
 Large coefficients: NSaved= 20 BigCof=    0.00 CofMax=   10.00 Det=-7.26D-15
 Inversion failed.  Reducing to 19 matrices.
 Large coefficients: NSaved= 19 BigCof=    0.00 CofMax=   10.00 Det=-7.67D-15
 Inversion failed.  Reducing to 18 matrices.
 Large coefficients: NSaved= 18 BigCof=    0.00 CofMax=   10.00 Det=-7.68D-15
 Inversion failed.  Reducing to 17 matrices.
 Large coefficients: NSaved= 17 BigCof=    0.00 CofMax=   10.00 Det=-7.90D-15
 Inversion failed.  Reducing to 16 matrices.
 Large coefficients: NSaved= 16 BigCof=    0.00 CofMax=   10.00 Det=-7.90D-15
 Inversion failed.  Reducing to 15 matrices.
 Coeff-Com:  0.233D-05 0.635D-05-0.387D-04-0.702D-05 0.199D-03 0.571D-04
 Coeff-Com: -0.248D-03-0.126D-02-0.164D-02 0.394D-02 0.174D-01-0.355D-01
 Coeff-Com: -0.585D-01 0.192D+00 0.883D+00
 Coeff:      0.233D-05 0.635D-05-0.387D-04-0.702D-05 0.199D-03 0.571D-04
 Coeff:     -0.248D-03-0.126D-02-0.164D-02 0.394D-02 0.174D-01-0.355D-01
 Coeff:     -0.585D-01 0.192D+00 0.883D+00
 Gap=     0.031 Goal=   None    Shift=    0.000
 Gap=     0.246 Goal=   None    Shift=    0.000
 RMSDP=2.17D-06 MaxDP=1.97D-04 DE=-1.93D-12 OVMax= 2.88D-07

 Cycle  25  Pass 1  IDiag  1:
 RMSU=  7.86D-08    CP:  1.00D+00  9.92D-01  1.17D+00  1.31D+00
 E= -430.356205259866     Delta-E=       -0.000000000017 Rises=F Damp=F
 DIIS: error= 2.38D-09 at cycle  25 NSaved=  16.
 NSaved=16 IEnMin=16 EnMin= -430.356205259866     IErMin=16 ErrMin= 2.38D-09
 ErrMax= 2.38D-09  0.00D+00 EMaxC= 1.00D-01 BMatC= 1.66D-15 BMatP= 3.58D-15
 IDIUse=1 WtCom= 1.00D+00 WtEn= 0.00D+00
 Large coefficients: NSaved= 16 BigCof=    0.00 CofMax=   10.00 Det=-4.93D-15
 Inversion failed.  Reducing to 15 matrices.
 Coeff-Com: -0.588D-05-0.182D-04-0.412D-05 0.137D-03 0.165D-03 0.417D-04
 Coeff-Com: -0.690D-03-0.146D-02-0.179D-02 0.937D-02 0.659D-02-0.497D-01
 Coeff-Com: -0.700D-01 0.544D+00 0.563D+00
 Coeff:     -0.588D-05-0.182D-04-0.412D-05 0.137D-03 0.165D-03 0.417D-04
 Coeff:     -0.690D-03-0.146D-02-0.179D-02 0.937D-02 0.659D-02-0.497D-01
 Coeff:     -0.700D-01 0.544D+00 0.563D+00
 Gap=     0.031 Goal=   None    Shift=    0.000
 Gap=     0.246 Goal=   None    Shift=    0.000
 RMSDP=1.04D-06 MaxDP=9.36D-05 DE=-1.69D-11 OVMax= 2.09D-07

 Cycle  26  Pass 1  IDiag  1:
 RMSU=  2.91D-08    CP:  1.00D+00  9.97D-01  1.16D+00  1.41D+00  1.64D+00
 E= -430.356205259853     Delta-E=        0.000000000013 Rises=F Damp=F
 DIIS: error= 8.85D-10 at cycle  26 NSaved=  16.
 NSaved=16 IEnMin=15 EnMin= -430.356205259866     IErMin=16 ErrMin= 8.85D-10
 ErrMax= 8.85D-10  0.00D+00 EMaxC= 1.00D-01 BMatC= 2.25D-16 BMatP= 1.66D-15
 IDIUse=1 WtCom= 1.00D+00 WtEn= 0.00D+00
 Large coefficients: NSaved= 16 BigCof=    0.00 CofMax=   10.00 Det=-4.16D-16
 Inversion failed.  Reducing to 15 matrices.
 Coeff-Com:  0.384D-05 0.288D-06-0.145D-04 0.545D-05 0.367D-04 0.885D-04
 Coeff-Com:  0.123D-04-0.502D-03-0.863D-03 0.548D-02-0.408D-02-0.311D-01
 Coeff-Com:  0.101D-01 0.893D-01 0.932D+00
 Coeff:      0.384D-05 0.288D-06-0.145D-04 0.545D-05 0.367D-04 0.885D-04
 Coeff:      0.123D-04-0.502D-03-0.863D-03 0.548D-02-0.408D-02-0.311D-01
 Coeff:      0.101D-01 0.893D-01 0.932D+00
 Gap=     0.031 Goal=   None    Shift=    0.000
 Gap=     0.246 Goal=   None    Shift=    0.000
 RMSDP=4.76D-07 MaxDP=4.82D-05 DE= 1.27D-11 OVMax= 2.23D-07

 Cycle  27  Pass 1  IDiag  1:
 RMSU=  1.98D-08    CP:  1.00D+00  9.93D-01  1.17D+00  1.45D+00  1.54D+00
                    CP:  1.68D+00
 E= -430.356205259852     Delta-E=        0.000000000001 Rises=F Damp=F
 DIIS: error= 2.29D-10 at cycle  27 NSaved=  16.
 NSaved=16 IEnMin=14 EnMin= -430.356205259866     IErMin=16 ErrMin= 2.29D-10
 ErrMax= 2.29D-10  0.00D+00 EMaxC= 1.00D-01 BMatC= 2.26D-17 BMatP= 2.25D-16
 IDIUse=1 WtCom= 1.00D+00 WtEn= 0.00D+00
 Large coefficients: NSaved= 16 BigCof=    0.00 CofMax=   10.00 Det=-6.14D-17
 Inversion failed.  Reducing to 15 matrices.
 Coeff-Com:  0.152D-05-0.303D-05-0.578D-05-0.611D-05 0.277D-04 0.104D-03
 Coeff-Com:  0.683D-04-0.843D-03 0.175D-02 0.244D-03-0.822D-02-0.365D-01
 Coeff-Com:  0.231D-02 0.491D+00 0.550D+00
 Coeff:      0.152D-05-0.303D-05-0.578D-05-0.611D-05 0.277D-04 0.104D-03
 Coeff:      0.683D-04-0.843D-03 0.175D-02 0.244D-03-0.822D-02-0.365D-01
 Coeff:      0.231D-02 0.491D+00 0.550D+00
 Gap=     0.031 Goal=   None    Shift=    0.000
 Gap=     0.246 Goal=   None    Shift=    0.000
 RMSDP=5.75D-08 MaxDP=5.39D-06 DE= 7.96D-13 OVMax= 1.75D-08

 Cycle  28  Pass 1  IDiag  1:
 RMSU=  1.61D-09    CP:  1.00D+00  9.94D-01  1.17D+00  1.45D+00  1.55D+00
                    CP:  1.79D+00  1.08D+00
 E= -430.356205259848     Delta-E=        0.000000000004 Rises=F Damp=F
 DIIS: error= 6.40D-11 at cycle  28 NSaved=  16.
 NSaved=16 IEnMin=13 EnMin= -430.356205259866     IErMin=16 ErrMin= 6.40D-11
 ErrMax= 6.40D-11  0.00D+00 EMaxC= 1.00D-01 BMatC= 2.00D-18 BMatP= 2.26D-17
 IDIUse=1 WtCom= 1.00D+00 WtEn= 0.00D+00
 Large coefficients: NSaved= 16 BigCof=    0.00 CofMax=   10.00 Det=-1.35D-17
 Inversion failed.  Reducing to 15 matrices.
 Coeff-Com: -0.220D-05-0.486D-05-0.585D-05 0.184D-04 0.723D-04 0.836D-04
 Coeff-Com: -0.572D-03 0.422D-04 0.314D-02 0.498D-03-0.259D-01-0.226D-01
 Coeff-Com:  0.173D-01 0.199D+00 0.829D+00
 Coeff:     -0.220D-05-0.486D-05-0.585D-05 0.184D-04 0.723D-04 0.836D-04
 Coeff:     -0.572D-03 0.422D-04 0.314D-02 0.498D-03-0.259D-01-0.226D-01
 Coeff:      0.173D-01 0.199D+00 0.829D+00
 Gap=     0.031 Goal=   None    Shift=    0.000
 Gap=     0.246 Goal=   None    Shift=    0.000
 RMSDP=2.51D-08 MaxDP=3.29D-06 DE= 4.09D-12 OVMax= 4.17D-09

 Cycle  29  Pass 1  IDiag  1:
 RMSU=  3.69D-10    CP:  1.00D+00  9.94D-01  1.17D+00  1.46D+00  1.54D+00
                    CP:  1.91D+00  1.17D+00  2.06D+00
 E= -430.356205259857     Delta-E=       -0.000000000009 Rises=F Damp=F
 DIIS: error= 2.70D-11 at cycle  29 NSaved=  16.
 NSaved=16 IEnMin=12 EnMin= -430.356205259866     IErMin=16 ErrMin= 2.70D-11
 ErrMax= 2.70D-11  0.00D+00 EMaxC= 1.00D-01 BMatC= 3.45D-19 BMatP= 2.00D-18
 IDIUse=1 WtCom= 1.00D+00 WtEn= 0.00D+00
 Large coefficients: NSaved= 16 BigCof=    0.00 CofMax=   10.00 Det=-1.48D-18
 Inversion failed.  Reducing to 15 matrices.
 Coeff-Com: -0.107D-05-0.163D-05 0.408D-06 0.539D-05 0.457D-04-0.245D-04
 Coeff-Com: -0.399D-03 0.824D-03 0.247D-02-0.536D-02-0.952D-02-0.574D-01
 Coeff-Com:  0.244D-01 0.340D+00 0.705D+00
 Coeff:     -0.107D-05-0.163D-05 0.408D-06 0.539D-05 0.457D-04-0.245D-04
 Coeff:     -0.399D-03 0.824D-03 0.247D-02-0.536D-02-0.952D-02-0.574D-01
 Coeff:      0.244D-01 0.340D+00 0.705D+00
 Gap=     0.031 Goal=   None    Shift=    0.000
 Gap=     0.246 Goal=   None    Shift=    0.000
 RMSDP=2.28D-08 MaxDP=1.80D-06 DE=-8.53D-12 OVMax= 2.47D-09

 Cycle  30  Pass 1  IDiag  1:
 RMSU=  7.52D-10    CP:  1.00D+00  9.94D-01  1.17D+00  1.46D+00  1.52D+00
                    CP:  1.96D+00  1.19D+00  2.45D+00  7.93D-01
 E= -430.356205259873     Delta-E=       -0.000000000016 Rises=F Damp=F
 DIIS: error= 1.49D-11 at cycle  30 NSaved=  16.
 NSaved=16 IEnMin=16 EnMin= -430.356205259873     IErMin=16 ErrMin= 1.49D-11
 ErrMax= 1.49D-11  0.00D+00 EMaxC= 1.00D-01 BMatC= 4.36D-20 BMatP= 3.45D-19
 IDIUse=1 WtCom= 1.00D+00 WtEn= 0.00D+00
 Large coefficients: NSaved= 16 BigCof=    0.00 CofMax=   10.00 Det=-2.73D-19
 Inversion failed.  Reducing to 15 matrices.
 Coeff-Com:  0.156D-06-0.396D-06-0.468D-05 0.492D-05 0.456D-04-0.138D-03
 Coeff-Com: -0.219D-05 0.554D-03 0.112D-02-0.605D-03-0.236D-01-0.151D-01
 Coeff-Com:  0.367D-01 0.268D+00 0.733D+00
 Coeff:      0.156D-06-0.396D-06-0.468D-05 0.492D-05 0.456D-04-0.138D-03
 Coeff:     -0.219D-05 0.554D-03 0.112D-02-0.605D-03-0.236D-01-0.151D-01
 Coeff:      0.367D-01 0.268D+00 0.733D+00
 Gap=     0.031 Goal=   None    Shift=    0.000
 Gap=     0.246 Goal=   None    Shift=    0.000
 RMSDP=2.68D-09 MaxDP=2.11D-07 DE=-1.61D-11 OVMax= 1.05D-09

 SCF Done:  E(UPBE1PBE) =  -430.356205260     A.U. after   30 cycles
            NFock= 30  Conv=0.27D-08     -V/T= 2.0029
 <Sx>= 0.0000 <Sy>= 0.0000 <Sz>= 0.5000 <S**2>= 0.7500 S= 0.5000
 <L.S>=  0.00000000000    
 KE= 4.290983341453D+02 PE=-1.706176336542D+03 EE= 5.031634986159D+02
 Annihilation of the first spin contaminant:
 S**2 before annihilation     0.7500,   after     0.7500
 Leave Link  502 at Wed Jan 29 15:50:17 2025, MaxMem=   104857600 cpu:             105.5 elap:             105.6
 (Enter /sw/cluster/pub/apps//g16/l601.exe)
 Copying SCF densities to generalized density rwf, IOpCl= 1 IROHF=0.

 **********************************************************************

            Population analysis using the SCF density.

 **********************************************************************

 Alpha  occ. eigenvalues --  -24.68437 -24.68436 -10.21468 -10.21467 -10.13644
 Alpha  occ. eigenvalues --  -10.12978 -10.12351 -10.12347  -1.16949  -1.16901
 Alpha  occ. eigenvalues --   -0.79633  -0.68515  -0.67615  -0.55207  -0.54700
 Alpha  occ. eigenvalues --   -0.48452  -0.44016  -0.41905  -0.40569  -0.39930
 Alpha  occ. eigenvalues --   -0.38702  -0.35553  -0.35177  -0.30385  -0.29003
 Alpha  occ. eigenvalues --   -0.27089  -0.26863  -0.17040  -0.15692   0.05419
 Alpha virt. eigenvalues --    0.08503   0.08695   0.08847   0.10155   0.10768
 Alpha virt. eigenvalues --    0.13318   0.14355   0.15556   0.17900   0.18344
 Alpha virt. eigenvalues --    0.19173   0.19920   0.20748   0.21087   0.21802
 Alpha virt. eigenvalues --    0.22342   0.22658   0.22886   0.23251   0.23287
 Alpha virt. eigenvalues --    0.23617   0.24362   0.25166   0.25863   0.27498
 Alpha virt. eigenvalues --    0.28232   0.29157   0.29873   0.31748   0.32379
 Alpha virt. eigenvalues --    0.33719   0.35643   0.36800   0.37778   0.38409
 Alpha virt. eigenvalues --    0.38883   0.41382   0.43983   0.44486   0.45567
 Alpha virt. eigenvalues --    0.45593   0.45731   0.46501   0.51072   0.51849
 Alpha virt. eigenvalues --    0.52426   0.54020   0.55687   0.59233   0.62750
 Alpha virt. eigenvalues --    0.63375   0.65349   0.67628   0.68197   0.68989
 Alpha virt. eigenvalues --    0.69623   0.70784   0.72940   0.73695   0.73924
 Alpha virt. eigenvalues --    0.79274   0.79762   0.81253   0.86831   0.89198
 Alpha virt. eigenvalues --    0.90846   0.92726   0.93364   0.98297   0.98587
 Alpha virt. eigenvalues --    0.99456   1.02555   1.03364   1.05146   1.05523
 Alpha virt. eigenvalues --    1.09745   1.11770   1.14336   1.14793   1.18793
 Alpha virt. eigenvalues --    1.20747   1.26863   1.31620   1.38126   1.46745
 Alpha virt. eigenvalues --    1.52154   1.53503   1.55998   1.56026   1.56191
 Alpha virt. eigenvalues --    1.62721   1.64419   1.65418   1.66659   1.67715
 Alpha virt. eigenvalues --    1.67850   1.70994   1.72559   1.76765   1.77311
 Alpha virt. eigenvalues --    1.83293   1.87357   1.90209   2.01220   2.02125
 Alpha virt. eigenvalues --    2.02230   2.02867   2.07022   2.08878   2.10077
 Alpha virt. eigenvalues --    2.12374   2.14391   2.16791   2.17262   2.19337
 Alpha virt. eigenvalues --    2.20594   2.34831   2.37159   2.43897   2.50582
 Alpha virt. eigenvalues --    2.56747   2.59393   2.61656   2.75643   2.76173
 Alpha virt. eigenvalues --    2.83696   2.84410   2.85362   2.86464   2.87144
 Alpha virt. eigenvalues --    2.89475   2.91068   2.95845   2.99998   3.00506
 Alpha virt. eigenvalues --    3.00883   3.20532   3.27613   3.28587   3.33005
 Alpha virt. eigenvalues --    3.48094   3.50156   3.62952   3.75494   3.76626
 Alpha virt. eigenvalues --    3.88649   3.90152   3.90185   3.96833   3.98114
 Alpha virt. eigenvalues --    4.10905   4.11202   4.15991   4.24920   4.25149
 Alpha virt. eigenvalues --    4.28196   4.29363   4.96361   4.99673   5.00805
 Alpha virt. eigenvalues --    6.45769   6.47347   6.59268   6.59395   6.87434
 Alpha virt. eigenvalues --    6.93928  23.74741  24.10112  24.17022  24.29945
 Alpha virt. eigenvalues --   24.30764  24.40960  67.05541  67.06063
  Beta  occ. eigenvalues --  -24.68436 -24.68435 -10.21472 -10.21471 -10.13635
  Beta  occ. eigenvalues --  -10.12944 -10.12327 -10.12324  -1.16948  -1.16899
  Beta  occ. eigenvalues --   -0.79601  -0.68466  -0.67580  -0.55155  -0.54662
  Beta  occ. eigenvalues --   -0.48402  -0.44000  -0.41814  -0.40527  -0.39927
  Beta  occ. eigenvalues --   -0.38702  -0.35504  -0.35098  -0.30329  -0.28956
  Beta  occ. eigenvalues --   -0.27058  -0.26781  -0.17009  -0.15671
  Beta virt. eigenvalues --    0.08908   0.09394   0.10190   0.10913   0.11497
  Beta virt. eigenvalues --    0.13126   0.14475   0.15916   0.16042   0.18763
  Beta virt. eigenvalues --    0.18789   0.19520   0.20543   0.21749   0.22892
  Beta virt. eigenvalues --    0.22986   0.23291   0.23312   0.23375   0.24181
  Beta virt. eigenvalues --    0.24242   0.24309   0.24958   0.25697   0.26872
  Beta virt. eigenvalues --    0.28326   0.29586   0.29712   0.30646   0.32063
  Beta virt. eigenvalues --    0.32854   0.35681   0.36245   0.37399   0.38348
  Beta virt. eigenvalues --    0.38716   0.39262   0.42213   0.44859   0.45220
  Beta virt. eigenvalues --    0.46039   0.46110   0.46287   0.46908   0.51448
  Beta virt. eigenvalues --    0.52275   0.52879   0.54373   0.55975   0.59512
  Beta virt. eigenvalues --    0.62953   0.63643   0.65548   0.67833   0.68445
  Beta virt. eigenvalues --    0.69190   0.69849   0.70932   0.73154   0.73906
  Beta virt. eigenvalues --    0.74063   0.79543   0.79899   0.81470   0.87146
  Beta virt. eigenvalues --    0.89457   0.91103   0.92950   0.93548   0.98501
  Beta virt. eigenvalues --    0.98925   0.99783   1.02753   1.03530   1.05276
  Beta virt. eigenvalues --    1.05669   1.09756   1.11834   1.14453   1.14944
  Beta virt. eigenvalues --    1.18818   1.20794   1.26901   1.31653   1.38307
  Beta virt. eigenvalues --    1.46890   1.52260   1.53695   1.56064   1.56139
  Beta virt. eigenvalues --    1.56351   1.62845   1.64499   1.65532   1.66741
  Beta virt. eigenvalues --    1.67826   1.67923   1.71045   1.72626   1.76818
  Beta virt. eigenvalues --    1.77385   1.83373   1.87495   1.90309   2.01301
  Beta virt. eigenvalues --    2.02156   2.02255   2.02963   2.07089   2.08968
  Beta virt. eigenvalues --    2.10149   2.12411   2.14505   2.16855   2.17348
  Beta virt. eigenvalues --    2.19399   2.20637   2.34926   2.37215   2.43920
  Beta virt. eigenvalues --    2.50648   2.56885   2.59433   2.61750   2.75710
  Beta virt. eigenvalues --    2.76212   2.83801   2.84540   2.85505   2.86574
  Beta virt. eigenvalues --    2.87165   2.89671   2.91126   2.95935   3.00074
  Beta virt. eigenvalues --    3.00554   3.00914   3.20563   3.27642   3.28624
  Beta virt. eigenvalues --    3.33026   3.48124   3.50201   3.63036   3.75547
  Beta virt. eigenvalues --    3.76663   3.88678   3.90147   3.90180   3.96839
  Beta virt. eigenvalues --    3.98125   4.10909   4.11206   4.16096   4.24928
  Beta virt. eigenvalues --    4.25171   4.28250   4.29392   4.96378   4.99696
  Beta virt. eigenvalues --    5.00827   6.45784   6.47364   6.59282   6.59408
  Beta virt. eigenvalues --    6.87457   6.93955  23.74755  24.10115  24.17046
  Beta virt. eigenvalues --   24.29965  24.30780  24.40981  67.05543  67.06064
          Condensed to atoms (all electrons):
               1          2          3          4          5          6
     1  C  151.480722 -66.931332  72.960629 -75.958288  73.010799 -66.953174
     2  C  -66.931332  44.178372 -45.111998  46.486111 -44.323911  36.140359
     3  C   72.960629 -45.111998  82.645250 -85.210893  68.380477 -44.320910
     4  C  -75.958288  46.486111 -85.210893 112.138877 -85.253950  46.518408
     5  C   73.010799 -44.323911  68.380477 -85.253950  82.733510 -45.169534
     6  C  -66.953174  36.140359 -44.320910  46.518408 -45.169534  44.210656
     7  H  -34.541610  13.554961 -12.769248  12.982312 -12.779350  13.557491
     8  H  -23.613641  10.112792 -15.163855  13.776220 -10.568776  10.450904
     9  H   -2.216900   1.537743  -3.712024   5.263406  -3.713693   1.539085
    10  H  -23.628813  10.455010 -10.569714  13.785067 -15.187321  10.123586
    11  F   -1.103511   0.444089  -1.191300   1.496147  -1.152568   0.714608
    12  F   -1.104142   0.714700  -1.152860   1.497280  -1.193864   0.445467
               7          8          9         10         11         12
     1  C  -34.541610 -23.613641  -2.216900 -23.628813  -1.103511  -1.104142
     2  C   13.554961  10.112792   1.537743  10.455010   0.444089   0.714700
     3  C  -12.769248 -15.163855  -3.712024 -10.569714  -1.191300  -1.152860
     4  C   12.982312  13.776220   5.263406  13.785067   1.496147   1.497280
     5  C  -12.779350 -10.568776  -3.713693 -15.187321  -1.152568  -1.193864
     6  C   13.557491  10.450904   1.539085  10.123586   0.714608   0.445467
     7  H   10.477207   5.703686   0.348593   5.707975   0.169740   0.169858
     8  H    5.703686   8.283542   0.462176   2.180812   0.380469   0.087875
     9  H    0.348593   0.462176   0.807297   0.462523   0.053610   0.053661
    10  H    5.707975   2.180812   0.462523   8.295408   0.087871   0.381081
    11  F    0.169740   0.380469   0.053610   0.087871   9.267453   0.006679
    12  F    0.169858   0.087875   0.053661   0.381081   0.006679   9.267542
          Atomic-Atomic Spin Densities.
               1          2          3          4          5          6
     1  C  143.444447 -64.316343  71.021953 -75.226165  71.071642 -64.337783
     2  C  -64.316343  33.591633 -42.421367  47.038244 -42.297562  33.072272
     3  C   71.021953 -42.421367  73.428668 -82.970563  66.320557 -42.294924
     4  C  -75.226165  47.038244 -82.970563 100.336652 -83.014770  47.070431
     5  C   71.071642 -42.297562  66.320557 -83.014770  73.516680 -42.477238
     6  C  -64.337783  33.072272 -42.294924  47.070431 -42.477238  33.622301
     7  H  -35.017952  13.738022 -12.838713  12.929459 -12.848852  13.740542
     8  H  -23.547109   9.528788 -14.975127  13.859188 -10.552604  10.365249
     9  H   -2.239576   1.603800  -3.588351   4.614715  -3.590061   1.605152
    10  H  -23.562242  10.369325 -10.553539  13.867996 -14.998540   9.539554
    11  F   -1.150047   0.784516  -1.849063   1.821701  -1.176970   0.746634
    12  F   -1.150704   0.746739  -1.177299   1.822897  -1.851641   0.785875
               7          8          9         10         11         12
     1  C  -35.017952 -23.547109  -2.239576 -23.562242  -1.150047  -1.150704
     2  C   13.738022   9.528788   1.603800  10.369325   0.784516   0.746739
     3  C  -12.838713 -14.975127  -3.588351 -10.553539  -1.849063  -1.177299
     4  C   12.929459  13.859188   4.614715  13.867996   1.821701   1.822897
     5  C  -12.848852 -10.552604  -3.590061 -14.998540  -1.176970  -1.851641
     6  C   13.740542  10.365249   1.605152   9.539554   0.746634   0.785875
     7  H   10.064873   5.713301   0.346670   5.717589   0.167880   0.167997
     8  H    5.713301   7.841273   0.463943   2.177682   0.406352   0.087989
     9  H    0.346670   0.463943   0.303165   0.464290   0.073513   0.073573
    10  H    5.717589   2.177682   0.464290   7.853188   0.087984   0.406957
    11  F    0.167880   0.406352   0.073513   0.087984   0.095326   0.007299
    12  F    0.167997   0.087989   0.073573   0.406957   0.007299   0.095462
 Mulliken charges and spin densities:
               1          2
     1  C    4.599261  -5.009877
     2  C   -1.256897   1.438068
     3  C    1.216446  -1.897768
     4  C   -1.520697   2.149785
     5  C    1.218182  -1.899360
     6  C   -1.256946   1.438066
     7  H   -1.581616   1.880816
     8  H   -1.092205   1.368926
     9  H    0.114524   0.130833
    10  H   -1.093485   1.370244
    11  F   -0.173286   0.015124
    12  F   -0.173280   0.015144
 Sum of Mulliken charges =  -1.00000   1.00000
 Mulliken charges and spin densities with hydrogens summed into heavy atoms:
               1          2
     1  C    3.017645  -3.129061
     2  C   -2.349102   2.806994
     3  C    1.216446  -1.897768
     4  C   -1.406173   2.280618
     5  C    1.218182  -1.899360
     6  C   -2.350432   2.808310
    11  F   -0.173286   0.015124
    12  F   -0.173280   0.015144
 Electronic spatial extent (au):  <R**2>=            992.4827
 Charge=             -1.0000 electrons
 Dipole moment (field-independent basis, Debye):
    X=             -8.2796    Y=             -4.7837    Z=              0.0000  Tot=              9.5621
 Quadrupole moment (field-independent basis, Debye-Ang):
   XX=            -95.7028   YY=            -91.7074   ZZ=            -64.8922
   XY=             -3.4737   XZ=              0.0000   YZ=              0.0000
 Traceless Quadrupole moment (field-independent basis, Debye-Ang):
   XX=            -11.6020   YY=             -7.6066   ZZ=             19.2086
   XY=             -3.4737   XZ=              0.0000   YZ=              0.0000
 Octapole moment (field-independent basis, Debye-Ang**2):
  XXX=           -150.0778  YYY=            -79.6321  ZZZ=              0.0000  XYY=            -50.0351
  XXY=            -36.0051  XXZ=              0.0000  XZZ=            -24.3713  YZZ=            -14.0845
  YYZ=             -0.0000  XYZ=              0.0000
 Hexadecapole moment (field-independent basis, Debye-Ang**3):
 XXXX=          -1540.0298 YYYY=          -1454.4523 ZZZZ=           -227.9876 XXXY=            -20.9106
 XXXZ=              0.0000 YYYX=            -53.6594 YYYZ=              0.0000 ZZZX=              0.0000
 ZZZY=              0.0000 XXYY=           -486.4661 XXZZ=           -242.7595 YYZZ=           -235.3649
 XXYZ=              0.0000 YYXZ=              0.0000 ZZXY=             -6.4545
 N-N= 3.435582985214D+02 E-N=-1.706176336541D+03  KE= 4.290983341453D+02
                          Isotropic Fermi Contact Couplings
        Atom                 a.u.       MegaHertz       Gauss      10(-4) cm-1
     1  C(13)              0.01633      18.35283       6.54875       6.12185
     2  C(13)              0.01597      17.95715       6.40756       5.98986
     3  C(13)             -0.00015      -0.17249      -0.06155      -0.05754
     4  C(13)              0.01103      12.39722       4.42364       4.13527
     5  C(13)             -0.00015      -0.17317      -0.06179      -0.05776
     6  C(13)              0.01598      17.96716       6.41113       5.99320
     7  H(1)              -0.00081      -3.62250      -1.29260      -1.20834
     8  H(1)              -0.00052      -2.32673      -0.83024      -0.77611
     9  H(1)              -0.00013      -0.58464      -0.20861      -0.19502
    10  H(1)              -0.00052      -2.32784      -0.83063      -0.77648
    11  F(19)              0.00215       9.05960       3.23269       3.02196
    12  F(19)              0.00215       9.06223       3.23363       3.02283
 --------------------------------------------------------
       Center         ----  Spin Dipole Couplings  ----
                      3XX-RR        3YY-RR        3ZZ-RR
 --------------------------------------------------------
     1   Atom        0.010742     -0.000390     -0.010351
     2   Atom        0.003165      0.001285     -0.004449
     3   Atom        0.001667      0.000677     -0.002344
     4   Atom       -0.000028      0.000182     -0.000154
     5   Atom        0.001078      0.001266     -0.002344
     6   Atom       -0.001622      0.006073     -0.004451
     7   Atom        0.004346      0.000084     -0.004429
     8   Atom        0.002938     -0.000178     -0.002760
     9   Atom        0.000716     -0.000077     -0.000639
    10   Atom       -0.001030      0.003792     -0.002762
    11   Atom       -0.003529      0.009170     -0.005641
    12   Atom        0.005878     -0.000240     -0.005637
 --------------------------------------------------------
                        XY            XZ            YZ
 --------------------------------------------------------
     1   Atom        0.009638      0.000000      0.000000
     2   Atom       -0.003897     -0.000000      0.000000
     3   Atom        0.000178     -0.000000      0.000000
     4   Atom       -0.000182     -0.000000     -0.000000
     5   Atom        0.000518     -0.000000     -0.000000
     6   Atom       -0.001135      0.000000     -0.000000
     7   Atom        0.003691     -0.000000     -0.000000
     8   Atom       -0.001882      0.000000     -0.000000
     9   Atom        0.000688      0.000000      0.000000
    10   Atom        0.000409     -0.000000      0.000000
    11   Atom       -0.000140      0.000000     -0.000000
    12   Atom       -0.005576     -0.000000      0.000000
 --------------------------------------------------------


 ---------------------------------------------------------------------------------
              Anisotropic Spin Dipole Couplings in Principal Axis System
 ---------------------------------------------------------------------------------

       Atom             a.u.   MegaHertz   Gauss  10(-4) cm-1        Axes

              Baa    -0.0104    -1.389    -0.496    -0.463 -0.0000 -0.0000  1.0000
     1 C(13)  Bbb    -0.0060    -0.799    -0.285    -0.267 -0.5000  0.8661  0.0000
              Bcc     0.0163     2.188     0.781     0.730  0.8661  0.5000  0.0000
 
              Baa    -0.0044    -0.597    -0.213    -0.199  0.0000 -0.0000  1.0000
     2 C(13)  Bbb    -0.0018    -0.239    -0.085    -0.080  0.6186  0.7857  0.0000
              Bcc     0.0062     0.836     0.298     0.279  0.7857 -0.6186 -0.0000
 
              Baa    -0.0023    -0.315    -0.112    -0.105  0.0000 -0.0000  1.0000
     3 C(13)  Bbb     0.0006     0.087     0.031     0.029 -0.1713  0.9852  0.0000
              Bcc     0.0017     0.228     0.081     0.076  0.9852  0.1713 -0.0000
 
              Baa    -0.0002    -0.021    -0.007    -0.007  0.0000  0.0000  1.0000
     4 C(13)  Bbb    -0.0001    -0.018    -0.006    -0.006  0.8659  0.5002 -0.0000
              Bcc     0.0003     0.038     0.014     0.013 -0.5002  0.8659 -0.0000
 
              Baa    -0.0023    -0.315    -0.112    -0.105 -0.0000  0.0000  1.0000
     5 C(13)  Bbb     0.0006     0.087     0.031     0.029  0.7677 -0.6408  0.0000
              Bcc     0.0017     0.228     0.081     0.076  0.6408  0.7677 -0.0000
 
              Baa    -0.0045    -0.597    -0.213    -0.199 -0.0000  0.0000  1.0000
     6 C(13)  Bbb    -0.0018    -0.240    -0.085    -0.080  0.9897  0.1430  0.0000
              Bcc     0.0062     0.837     0.299     0.279 -0.1430  0.9897 -0.0000
 
              Baa    -0.0044    -2.363    -0.843    -0.788  0.0000  0.0000  1.0000
     7 H(1)   Bbb    -0.0020    -1.092    -0.390    -0.364 -0.5000  0.8660 -0.0000
              Bcc     0.0065     3.456     1.233     1.153  0.8660  0.5000 -0.0000
 
              Baa    -0.0028    -1.473    -0.526    -0.491 -0.0000  0.0000  1.0000
     8 H(1)   Bbb    -0.0011    -0.567    -0.202    -0.189  0.4257  0.9049 -0.0000
              Bcc     0.0038     2.040     0.728     0.681  0.9049 -0.4257  0.0000
 
              Baa    -0.0006    -0.341    -0.122    -0.114 -0.0000 -0.0000  1.0000
     9 H(1)   Bbb    -0.0005    -0.253    -0.090    -0.084 -0.5001  0.8660 -0.0000
              Bcc     0.0011     0.594     0.212     0.198  0.8660  0.5001  0.0000
 
              Baa    -0.0028    -1.473    -0.526    -0.491  0.0000 -0.0000  1.0000
    10 H(1)   Bbb    -0.0011    -0.568    -0.203    -0.189  0.9965 -0.0839 -0.0000
              Bcc     0.0038     2.041     0.728     0.681  0.0839  0.9965  0.0000
 
              Baa    -0.0056    -2.833    -1.011    -0.945 -0.0000  0.0000  1.0000
    11 F(19)  Bbb    -0.0035    -1.773    -0.633    -0.591  0.9999  0.0110  0.0000
              Bcc     0.0092     4.606     1.644     1.536 -0.0110  0.9999 -0.0000
 
              Baa    -0.0056    -2.831    -1.010    -0.944  0.0000 -0.0000  1.0000
    12 F(19)  Bbb    -0.0035    -1.779    -0.635    -0.593  0.5094  0.8605  0.0000
              Bcc     0.0092     4.610     1.645     1.538  0.8605 -0.5094 -0.0000
 

 ---------------------------------------------------------------------------------

 No NMR shielding tensors so no spin-rotation constants.
 Leave Link  601 at Wed Jan 29 15:50:17 2025, MaxMem=   104857600 cpu:               0.1 elap:               0.1
 (Enter /sw/cluster/pub/apps//g16/l701.exe)
 ... and contract with generalized density number  0.
 Compute integral first derivatives.
 Leave Link  701 at Wed Jan 29 15:50:17 2025, MaxMem=   104857600 cpu:               0.0 elap:               0.0
 (Enter /sw/cluster/pub/apps//g16/l702.exe)
 L702 exits ... SP integral derivatives will be done elsewhere.
 Leave Link  702 at Wed Jan 29 15:50:17 2025, MaxMem=   104857600 cpu:               0.0 elap:               0.0
 (Enter /sw/cluster/pub/apps//g16/l703.exe)
 Integral derivatives from FoFJK, PRISM(SPDF).
 Compute integral first derivatives, UseDBF=F ICtDFT=           0.
 Calling FoFJK, ICntrl=      2127 FMM=F ISym2X=0 I1Cent= 0 IOpClX= 1 NMat=1 NMatS=1 NMatT=0.
 FoFJK:  IHMeth= 1 ICntrl=    2127 DoSepK=F KAlg= 0 I1Cent=           0 FoldK=F
 IRaf=         0 NMat=       1 IRICut=       1 DoRegI=T DoRafI=F ISym2E= 0 IDoP0=0 IntGTp=1.
 FoFCou: FMM=F IPFlag=           0 FMFlag=      100000 FMFlg1=         800
         NFxFlg=           0 DoJE=F BraDBF=F KetDBF=F FulRan=T
         wScrn=  0.000000 ICntrl=      2127 IOpCl=  1 I1Cent=           0 NGrid=           0
         NMat0=    1 NMatS0=      1 NMatT0=    0 NMatD0=    1 NMtDS0=    0 NMtDT0=    0
 Symmetry not used in FoFCou.
 Leave Link  703 at Wed Jan 29 15:50:27 2025, MaxMem=   104857600 cpu:               9.8 elap:               9.8
 (Enter /sw/cluster/pub/apps//g16/l716.exe)
 Dipole        =-3.25743184D+00-1.88203528D+00 1.73080882D-09
 -------------------------------------------------------------------
 Center     Atomic                   Forces (Hartrees/Bohr)
 Number     Number              X              Y              Z
 -------------------------------------------------------------------
      1        6          -0.002387997   -0.001409326    0.000000000
      2        6          -0.002564411    0.000052180    0.000000000
      3        6           0.002922059    0.007284391   -0.000000000
      4        6          -0.001498965   -0.000829960    0.000000000
      5        6           0.007738289   -0.001145068   -0.000000000
      6        6          -0.001249268   -0.002270103    0.000000000
      7        1           0.001215643    0.000705460   -0.000000000
      8        1           0.002255755   -0.000021347   -0.000000000
      9        1          -0.000688277   -0.000404587   -0.000000000
     10        1           0.001098172    0.001973699   -0.000000000
     11        9          -0.001129088   -0.005948876    0.000000000
     12        9          -0.005711912    0.002013538    0.000000000
 -------------------------------------------------------------------
 Cartesian Forces:  Max     0.007738289 RMS     0.002543281
 Leave Link  716 at Wed Jan 29 15:50:27 2025, MaxMem=   104857600 cpu:               0.0 elap:               0.0
 (Enter /sw/cluster/pub/apps//g16/l103.exe)

 GradGradGradGradGradGradGradGradGradGradGradGradGradGradGradGradGradGrad
 Berny optimization.
 FormGI is forming the generalized inverse of G from B-inverse, IUseBI=4.
 Internal  Forces:  Max     0.005958821 RMS     0.001367817
 Search for a local minimum.
 Step number   1 out of a maximum of   64
 All quantities printed in internal units (Hartrees-Bohrs-Radians)
 RMS Force = .13678D-02 SwitMx=.10000D-02 MixMth= 1
 Mixed Optimization -- RFO/linear search
 Second derivative matrix not updated -- first step.
 ITU=  0
     Eigenvalues ---    0.02220   0.02236   0.02257   0.02265   0.02288
     Eigenvalues ---    0.02303   0.02303   0.02303   0.02304   0.16000
     Eigenvalues ---    0.16000   0.16000   0.16000   0.22000   0.23508
     Eigenvalues ---    0.23518   0.25000   0.25000   0.35458   0.35632
     Eigenvalues ---    0.35633   0.35688   0.43308   0.43720   0.47521
     Eigenvalues ---    0.47924   0.48414   0.48429   0.57003   0.57004
 RFO step:  Lambda=-2.38400112D-04 EMin= 2.22006986D-02
 Linear search not attempted -- first point.
 Iteration  1 RMS(Cart)=  0.00449495 RMS(Int)=  0.00001672
 Iteration  2 RMS(Cart)=  0.00002137 RMS(Int)=  0.00000019
 Iteration  3 RMS(Cart)=  0.00000000 RMS(Int)=  0.00000019
 ITry= 1 IFail=0 DXMaxC= 1.61D-02 DCOld= 1.00D+10 DXMaxT= 3.00D-01 DXLimC= 3.00D+00 Rises=F
 Variable       Old X    -DE/DX   Delta X   Delta X   Delta X     New X
                                 (Linear)    (Quad)   (Total)
    R1        2.62688  -0.00077   0.00000  -0.00180  -0.00180   2.62508
    R2        2.62683  -0.00074   0.00000  -0.00174  -0.00174   2.62510
    R3        2.04937   0.00141   0.00000   0.00396   0.00396   2.05333
    R4        2.61484  -0.00094   0.00000  -0.00193  -0.00193   2.61291
    R5        2.04662   0.00194   0.00000   0.00543   0.00543   2.05205
    R6        2.61501   0.00071   0.00000   0.00163   0.00163   2.61664
    R7        2.53394   0.00595   0.00000   0.01044   0.01044   2.54438
    R8        2.61510   0.00067   0.00000   0.00155   0.00155   2.61665
    R9        2.04573   0.00080   0.00000   0.00224   0.00224   2.04797
   R10        2.61484  -0.00094   0.00000  -0.00195  -0.00195   2.61290
   R11        2.53394   0.00596   0.00000   0.01045   0.01045   2.54439
   R12        2.04659   0.00195   0.00000   0.00546   0.00546   2.05205
    A1        2.11430   0.00098   0.00000   0.00378   0.00378   2.11807
    A2        2.08441  -0.00049   0.00000  -0.00187  -0.00187   2.08254
    A3        2.08448  -0.00049   0.00000  -0.00191  -0.00191   2.08257
    A4        2.06236  -0.00045   0.00000  -0.00233  -0.00233   2.06003
    A5        2.12887  -0.00096   0.00000  -0.00622  -0.00622   2.12264
    A6        2.09196   0.00141   0.00000   0.00856   0.00855   2.10051
    A7        2.14246   0.00028   0.00000   0.00149   0.00149   2.14395
    A8        2.07704   0.00126   0.00000   0.00483   0.00483   2.08187
    A9        2.06369  -0.00153   0.00000  -0.00632  -0.00632   2.05737
   A10        2.04244  -0.00064   0.00000  -0.00210  -0.00210   2.04034
   A11        2.12048   0.00032   0.00000   0.00101   0.00101   2.12149
   A12        2.12027   0.00033   0.00000   0.00109   0.00109   2.12136
   A13        2.14258   0.00025   0.00000   0.00139   0.00139   2.14397
   A14        2.06349  -0.00150   0.00000  -0.00618  -0.00618   2.05731
   A15        2.07712   0.00125   0.00000   0.00479   0.00479   2.08191
   A16        2.06223  -0.00042   0.00000  -0.00222  -0.00222   2.06001
   A17        2.12885  -0.00096   0.00000  -0.00621  -0.00621   2.12264
   A18        2.09211   0.00138   0.00000   0.00843   0.00843   2.10054
    D1        0.00000   0.00000   0.00000   0.00000   0.00000   0.00000
    D2        3.14159  -0.00000   0.00000  -0.00000   0.00000   3.14159
    D3        3.14159   0.00000   0.00000   0.00000   0.00000   3.14159
    D4        0.00000   0.00000   0.00000   0.00000   0.00000   0.00000
    D5       -0.00000  -0.00000   0.00000  -0.00000   0.00000   0.00000
    D6        3.14159   0.00000   0.00000   0.00000   0.00000   3.14159
    D7        3.14159  -0.00000   0.00000  -0.00000   0.00000   3.14159
    D8        0.00000  -0.00000   0.00000  -0.00000  -0.00000   0.00000
    D9        0.00000  -0.00000   0.00000  -0.00000  -0.00000   0.00000
   D10        3.14159   0.00000   0.00000   0.00000   0.00000   3.14159
   D11        3.14159   0.00000   0.00000   0.00000   0.00000   3.14159
   D12       -0.00000   0.00000   0.00000   0.00000   0.00000   0.00000
   D13       -0.00000   0.00000   0.00000   0.00000   0.00000   0.00000
   D14        3.14159   0.00000   0.00000   0.00000   0.00000   3.14159
   D15        3.14159  -0.00000   0.00000  -0.00000   0.00000   3.14159
   D16        0.00000  -0.00000   0.00000  -0.00000  -0.00000   0.00000
   D17        0.00000  -0.00000   0.00000  -0.00000  -0.00000   0.00000
   D18        3.14159   0.00000   0.00000   0.00000   0.00000   3.14159
   D19        3.14159  -0.00000   0.00000  -0.00000   0.00000   3.14159
   D20       -0.00000   0.00000   0.00000   0.00000   0.00000   0.00000
   D21       -0.00000   0.00000   0.00000   0.00000   0.00000   0.00000
   D22        3.14159   0.00000   0.00000   0.00000   0.00000   3.14159
   D23        3.14159  -0.00000   0.00000  -0.00000   0.00000   3.14159
   D24        0.00000  -0.00000   0.00000  -0.00000  -0.00000   0.00000
         Item               Value     Threshold  Converged?
 Maximum Force            0.005959     0.000450     NO 
 RMS     Force            0.001368     0.000300     NO 
 Maximum Displacement     0.016133     0.001800     NO 
 RMS     Displacement     0.004502     0.001200     NO 
 Predicted change in Energy=-1.192847D-04
 Lowest energy point so far.  Saving SCF results.
 GradGradGradGradGradGradGradGradGradGradGradGradGradGradGradGradGradGrad

 Leave Link  103 at Wed Jan 29 15:50:27 2025, MaxMem=   104857600 cpu:               0.0 elap:               0.0
 (Enter /sw/cluster/pub/apps//g16/l202.exe)
                          Input orientation:                          
 ---------------------------------------------------------------------
 Center     Atomic      Atomic             Coordinates (Angstroms)
 Number     Number       Type             X           Y           Z
 ---------------------------------------------------------------------
      1          6           0        1.195183    0.690039    0.000000
      2          6           0        1.211626   -0.698995    0.000000
      3          6           0       -0.001088   -1.363194   -0.000000
      4          6           0       -1.218514   -0.703519   -0.000000
      5          6           0       -1.181092    0.680648   -0.000000
      6          6           0        0.000460    1.398808   -0.000000
      7          1           0        2.136198    1.233308   -0.000000
      8          1           0        2.143003   -1.257302    0.000000
      9          1           0       -2.157095   -1.245324   -0.000000
     10          1           0       -0.017351    2.484559   -0.000000
[...]
   D19        3.14159  -0.00000   0.00000   0.00000   0.00000  -3.14159
   D20       -0.00000   0.00000   0.00000   0.00000   0.00000   0.00000
   D21       -0.00000   0.00000   0.00000  -0.00000  -0.00000  -0.00000
   D22        3.14159   0.00000   0.00000  -0.00000  -0.00000   3.14159
   D23       -3.14159  -0.00000   0.00000   0.00000   0.00000  -3.14159
   D24        0.00000  -0.00000   0.00000   0.00000   0.00000   0.00000
         Item               Value     Threshold  Converged?
 Maximum Force            0.000136     0.000450     YES
 RMS     Force            0.000053     0.000300     YES
 Maximum Displacement     0.000374     0.001800     YES
 RMS     Displacement     0.000131     0.001200     YES
 Predicted change in Energy=-2.856409D-07
 Optimization completed.
    -- Stationary point found.
                           ----------------------------
                           !   Optimized Parameters   !
                           ! (Angstroms and Degrees)  !
 --------------------------                            --------------------------
 ! Name  Definition              Value          Derivative Info.                !
 --------------------------------------------------------------------------------
 ! R1    R(1,2)                  1.3894         -DE/DX =    0.0001              !
 ! R2    R(1,6)                  1.3894         -DE/DX =    0.0001              !
 ! R3    R(1,7)                  1.0869         -DE/DX =   -0.0001              !
 ! R4    R(2,3)                  1.3816         -DE/DX =    0.0                 !
 ! R5    R(2,8)                  1.086          -DE/DX =   -0.0001              !
 ! R6    R(3,4)                  1.3846         -DE/DX =   -0.0001              !
 ! R7    R(3,11)                 1.3493         -DE/DX =    0.0001              !
 ! R8    R(4,5)                  1.3846         -DE/DX =   -0.0001              !
 ! R9    R(4,9)                  1.0835         -DE/DX =   -0.0001              !
 ! R10   R(5,6)                  1.3816         -DE/DX =    0.0                 !
 ! R11   R(5,12)                 1.3493         -DE/DX =    0.0001              !
 ! R12   R(6,10)                 1.086          -DE/DX =   -0.0001              !
 ! A1    A(2,1,6)              121.4882         -DE/DX =    0.0                 !
 ! A2    A(2,1,7)              119.2561         -DE/DX =    0.0                 !
 ! A3    A(6,1,7)              119.2557         -DE/DX =    0.0                 !
 ! A4    A(1,2,3)              117.9004         -DE/DX =   -0.0001              !
 ! A5    A(1,2,8)              121.4366         -DE/DX =    0.0                 !
 ! A6    A(3,2,8)              120.663          -DE/DX =    0.0001              !
 ! A7    A(2,3,4)              122.9377         -DE/DX =    0.0001              !
 ! A8    A(2,3,11)             119.3496         -DE/DX =   -0.0001              !
 ! A9    A(4,3,11)             117.7128         -DE/DX =    0.0                 !
 ! A10   A(3,4,5)              116.8358         -DE/DX =    0.0                 !
 ! A11   A(3,4,9)              121.5829         -DE/DX =    0.0                 !
 ! A12   A(5,4,9)              121.5814         -DE/DX =    0.0                 !
 ! A13   A(4,5,6)              122.9376         -DE/DX =    0.0001              !
 ! A14   A(4,5,12)             117.7128         -DE/DX =    0.0                 !
 ! A15   A(6,5,12)             119.3496         -DE/DX =   -0.0001              !
 ! A16   A(1,6,5)              117.9004         -DE/DX =   -0.0001              !
 ! A17   A(1,6,10)             121.4369         -DE/DX =    0.0                 !
 ! A18   A(5,6,10)             120.6627         -DE/DX =    0.0001              !
 ! D1    D(6,1,2,3)              0.0            -DE/DX =    0.0                 !
 ! D2    D(6,1,2,8)           -180.0            -DE/DX =    0.0                 !
 ! D3    D(7,1,2,3)           -180.0            -DE/DX =    0.0                 !
 ! D4    D(7,1,2,8)              0.0            -DE/DX =    0.0                 !
 ! D5    D(2,1,6,5)              0.0            -DE/DX =    0.0                 !
 ! D6    D(2,1,6,10)           180.0            -DE/DX =    0.0                 !
 ! D7    D(7,1,6,5)            180.0            -DE/DX =    0.0                 !
 ! D8    D(7,1,6,10)             0.0            -DE/DX =    0.0                 !
 ! D9    D(1,2,3,4)              0.0            -DE/DX =    0.0                 !
 ! D10   D(1,2,3,11)           180.0            -DE/DX =    0.0                 !
 ! D11   D(8,2,3,4)           -180.0            -DE/DX =    0.0                 !
 ! D12   D(8,2,3,11)             0.0            -DE/DX =    0.0                 !
 ! D13   D(2,3,4,5)              0.0            -DE/DX =    0.0                 !
 ! D14   D(2,3,4,9)            180.0            -DE/DX =    0.0                 !
 ! D15   D(11,3,4,5)           180.0            -DE/DX =    0.0                 !
 ! D16   D(11,3,4,9)             0.0            -DE/DX =    0.0                 !
 ! D17   D(3,4,5,6)              0.0            -DE/DX =    0.0                 !
 ! D18   D(3,4,5,12)          -180.0            -DE/DX =    0.0                 !
 ! D19   D(9,4,5,6)           -180.0            -DE/DX =    0.0                 !
 ! D20   D(9,4,5,12)             0.0            -DE/DX =    0.0                 !
 ! D21   D(4,5,6,1)              0.0            -DE/DX =    0.0                 !
 ! D22   D(4,5,6,10)           180.0            -DE/DX =    0.0                 !
 ! D23   D(12,5,6,1)          -180.0            -DE/DX =    0.0                 !
 ! D24   D(12,5,6,10)            0.0            -DE/DX =    0.0                 !
 --------------------------------------------------------------------------------
 GradGradGradGradGradGradGradGradGradGradGradGradGradGradGradGradGradGrad

 Leave Link  103 at Wed Jan 29 16:00:02 2025, MaxMem=   104857600 cpu:               0.0 elap:               0.0
 (Enter /sw/cluster/pub/apps//g16/l9999.exe)

 ----------------------------------------------------------------------

 Electric dipole moment (input orientation):
 (Debye = 10**-18 statcoulomb cm , SI units = C m)
                  (au)            (Debye)         (10**-30 SI)
   Tot        0.379327D+01      0.964153D+01      0.321607D+02
   x         -0.328477D+01     -0.834905D+01     -0.278494D+02
   y         -0.189715D+01     -0.482207D+01     -0.160847D+02
   z          0.000000D+00      0.000000D+00      0.000000D+00

 Dipole polarizability, Alpha (input orientation).
 (esu units = cm**3 , SI units = C**2 m**2 J**-1)
 Alpha(0;0):
               (au)            (10**-24 esu)      (10**-40 SI)
   iso        0.151722D+04      0.224829D+03      0.250156D+03
   aniso      0.223076D+04      0.330564D+03      0.367802D+03
   xx         0.184746D+04      0.273766D+03      0.304605D+03
   yx        -0.560992D+03     -0.831305D+02     -0.924951D+02
   yy         0.247560D+04      0.366846D+03      0.408171D+03
   zx         0.259872D-01      0.385090D-02      0.428471D-02
   zy         0.201401D+00      0.298446D-01      0.332066D-01
   zz         0.228598D+03      0.338748D+02      0.376908D+02

 ----------------------------------------------------------------------

 Dipole orientation:
     6          0.00020679         -0.00035808         -2.60503784
     6          1.14576209         -1.98379896         -1.32151839
     6          1.11466734         -1.92996074          1.28863578
     6         -0.00020628          0.00035721          2.65857317
     6         -1.11486677          1.93030615          1.28793713
     6         -1.14555155          1.98343439         -1.32223927
     1          0.00036479         -0.00063164         -4.65906536
     1          2.04090402         -3.53366839         -2.32584348
     1         -0.00037977          0.00065760          4.70608513
     1         -2.04054163          3.53304086         -2.32712213
     9          2.21103277         -3.82823320          2.59095745
     9         -2.21143584          3.82893106          2.58957211

 Electric dipole moment (dipole orientation):
 (Debye = 10**-18 statcoulomb cm , SI units = C m)
                  (au)            (Debye)         (10**-30 SI)
   Tot        0.379327D+01      0.964153D+01      0.321607D+02
   x          0.000000D+00      0.000000D+00      0.000000D+00
   y          0.000000D+00      0.000000D+00      0.000000D+00
   z          0.379327D+01      0.964153D+01      0.321607D+02

 Dipole polarizability, Alpha (dipole orientation).
 (esu units = cm**3 , SI units = C**2 m**2 J**-1)
 Alpha(0;0):
               (au)            (10**-24 esu)      (10**-40 SI)
   iso        0.151722D+04      0.224829D+03      0.250156D+03
   aniso      0.223076D+04      0.330564D+03      0.367802D+03
   xx         0.872759D+03      0.129330D+03      0.143899D+03
   yx        -0.111548D+04     -0.165296D+03     -0.183917D+03
   yy         0.216024D+04      0.320114D+03      0.356175D+03
   zx        -0.426010D+01     -0.631282D+00     -0.702396D+00
   zy         0.712966D+01      0.105651D+01      0.117552D+01
   zz         0.151866D+04      0.225042D+03      0.250393D+03

 ----------------------------------------------------------------------
 1\1\GINC-N11\Freq\UPBE1PBE\6-311++G(d,p)\C6H4F2(1-,2)\UNKNOWN\29-Jan-2
 025\0\\#P Geom=AllCheck Guess=TCheck SCRF=Check GenChk UPBE1PBE/6-311+
 +G(d,p) Freq\\1 3-DFB SP\\-1,2\C,1.1938403344,0.6892612387,-0.00000000
 27\C,1.2118829464,-0.7000274294,-0.0000000033\C,-0.000647103,-1.362342
 2868,0.0000000079\C,-1.2183720638,-0.7034303852,0.0000000048\C,-1.1801
 456045,0.6806078778,0.000000015\C,-0.0002976826,1.3995328387,-0.000000
 0002\H,2.1351602175,1.2327365037,0.000000005\H,2.1457929559,-1.2543777
 854,-0.0000000035\H,-2.1567144618,-1.2451670515,0.0000000008\H,-0.0134
 291435,2.4855021115,-0.0000000045\F,-0.0172505526,-2.7115379602,-0.000
 0000071\F,-2.3568853345,1.3408255101,-0.0000000133\\Version=ES64L-G16R
 evA.03\HF=-430.3563791\S2=0.750046\S2-1=0.\S2A=0.75\RMSD=5.558e-09\RMS
 F=1.219e-04\ZeroPoint=0.0833651\Thermal=0.0895792\Dipole=-3.9109483,-2
 .2586778,0.\DipoleDeriv=-1.0556333,-0.5938347,-0.0000704,-0.3538498,-0
 .8776222,0.0000632,-0.0006038,-0.0068486,-0.5839316,0.6787059,1.707368
 2,0.0003167,-0.3840723,-0.2606751,-0.0001057,0.0003743,0.0080221,1.714
 9649,-0.4979621,0.5611812,-0.0007025,0.2792105,-0.7783352,0.0002471,0.
 0002769,-0.0042928,-0.1966539,-0.1867377,-0.6068993,0.0006562,-0.34627
 81,0.1493087,0.0002359,-0.0004503,0.0029449,-0.3551388,-0.3729535,0.26
 93619,-0.0000745,0.3064176,-0.7085358,-0.000578,0.0003149,-0.0030306,-
 0.2010399,0.5060129,-0.2852802,0.0002383,1.6926938,0.1178999,0.000018,
 0.0003418,0.007255,1.7163234,-0.6425189,0.1124702,-0.0001136,0.0709322
 ,-0.6802136,-0.0002035,-0.0000713,-0.0004294,-1.1837644,-0.4802701,0.0
 80329,0.000152,-0.1853138,-0.10624,-0.0000522,-0.0000437,-0.0008655,-0
 .8218565,-0.1972551,-0.1063287,-0.0000397,-0.1343598,-0.0209641,-0.000
 1004,-0.0001444,-0.001038,-0.1632809,-0.2706449,-0.235898,-0.0001021,-
 0.000964,-0.4281775,0.0001538,-0.0000207,-0.000896,-0.810836,0.3404976
 ,-0.2833108,0.0000521,-0.1804454,1.7549326,0.0002373,0.0000112,-0.0005
 438,-0.057772,1.1787592,-0.6191588,-0.0003124,-0.7639709,0.8386225,0.0
 000846,0.000015,-0.0002773,-0.0570144\Polar=1847.462898,-560.9923361,2
 475.5964599,0.0259872,0.2014014,228.5983113\Quadrupole=-8.7119845,-5.6
 658939,14.3778784,-2.6433653,0.,0.\PG=C01 [X(C6H4F2)]\NImag=0\\0.71666
 135,0.01483249,0.69739008,0.00005542,0.00004329,0.11628968,-0.12364010
 ,0.03683582,-0.00002485,0.73536869,-0.02860624,-0.35414368,0.00001125,
 -0.02853578,0.70915577,-0.00013429,-0.00010008,-0.04533009,0.00007184,
 -0.00003099,0.12288974,0.04276059,-0.08525338,-0.00005958,-0.31540852,
 -0.04500198,0.00011263,0.73522837,-0.02336075,-0.03047396,0.00000437,-
 0.11908787,-0.15235594,-0.00000028,-0.00086740,0.65139388,0.00017095,0
 .00012407,0.00772800,-0.00009949,0.00004203,-0.07516275,-0.00012146,-0
 .00000676,0.14985225,-0.02026363,0.02751125,0.00007777,-0.04726663,-0.
 02323473,-0.00015765,-0.31676701,0.12474996,0.00017943,0.75883543,0.02
 693645,-0.05135236,0.00003697,0.02513235,0.05820644,-0.00007805,0.0475
 0755,-0.15494630,0.00009139,0.02702592,0.72644798,-0.00017076,-0.00012
 318,-0.01161269,0.00010121,-0.00004257,0.02066989,0.00011634,0.0000083
 7,-0.05809748,-0.00017439,-0.00008947,0.10409767,-0.05886731,0.0347218
 6,-0.00002160,-0.02147065,-0.03569163,0.00004818,0.04644724,0.02949282
 ,-0.00005846,-0.12139929,0.01212777,0.00005774,0.67220346,-0.02614147,
 0.07124565,-0.00004693,-0.03631297,-0.05570998,0.00008770,0.09837812,-
 0.02799409,-0.00009368,-0.06512925,-0.35026722,0.00008949,0.03526220,0
 .71474461,0.00014440,0.00010446,0.00737135,-0.00008485,0.00003576,-0.0
 1179410,-0.00010037,-0.00000643,-0.00286295,0.00014940,0.00007638,-0.0
 5797602,-0.00004908,-0.00007731,0.14963595,-0.29335141,0.06975984,0.00
 000579,0.03404489,0.07176039,-0.00000399,-0.07875884,-0.00295147,-0.00
 000184,0.03320940,-0.06927250,0.00000341,-0.26455285,-0.07461533,-0.00
 000225,0.69125897,0.13450277,-0.18439517,-0.00004482,0.02260948,-0.020
 62585,0.00010702,-0.00287708,0.00131705,-0.00013514,-0.02177336,-0.022
 00989,0.00013475,-0.14811515,-0.20343006,-0.00011404,-0.00321178,0.753
 63758,-0.00012009,-0.00008954,-0.04529062,0.00006414,-0.00002768,0.003
 68825,0.00010101,-0.00000034,-0.01188532,-0.00014127,-0.00006990,0.020
 67517,0.00004312,0.00007867,-0.07502301,-0.00000367,0.00009572,0.12287
 200,-0.26553485,-0.11950242,-0.00001184,0.00775060,0.00075037,0.000023
 44,0.00004942,-0.00038462,-0.00002622,0.00024065,0.00059404,0.00002536
 ,-0.00340842,0.00302620,-0.00002178,-0.01794890,-0.01061386,0.00002101
 ,0.27836477,-0.11957724,-0.12724216,-0.00000948,-0.02542630,-0.0123975
 0,0.00001418,0.00125694,-0.00485832,-0.00001198,0.00026291,-0.00055301
 ,0.00001059,0.00181383,-0.00133203,-0.00000951,0.01547752,0.01351362,0
 .00001276,0.12705379,0.13159794,-0.00000336,-0.00000215,-0.04112620,0.
 00000265,-0.00000105,0.00178508,0.00000048,0.00000075,0.01152067,-0.00
 000168,-0.00000110,-0.00589394,0.00000090,0.00000028,0.01160311,0.0000
 0064,0.00000256,0.00174670,0.00000020,-0.00000029,0.02767191,0.0070695
 6,0.00061410,0.00001352,-0.26626935,0.12082299,-0.00002586,-0.01874394
 ,0.01436228,0.00002816,-0.00275510,-0.00327387,-0.00002704,-0.00060746
 ,-0.00079447,0.00002330,0.00150085,0.00013824,-0.00002319,-0.00142524,
 -0.00087630,-0.00000014,0.27712198,0.02627304,-0.01130474,-0.00001512,
 0.12263614,-0.12666163,0.00003373,-0.01445179,0.00975216,-0.00004092,-
 0.00285342,-0.00105571,0.00004042,-0.00118322,-0.00158545,-0.00003436,
 -0.00048054,-0.00506075,0.00003018,0.00065198,0.00187345,0.00000063,-0
 .13236479,0.13128250,0.00001379,0.00001030,0.00128765,-0.00000732,0.00
 000316,-0.03536249,-0.00001172,0.00000008,0.00714477,0.00001633,0.0000
 0807,0.00322072,-0.00000497,-0.00000913,-0.00013246,0.00000046,-0.0000
 1099,0.00682825,-0.00000243,-0.00000150,-0.00337417,0.00000269,-0.0000
 0348,0.02391522,0.00027561,0.00105348,-0.00000828,-0.00427050,0.004085
 49,0.00001801,-0.01619647,-0.01762768,-0.00002151,-0.27355567,-0.12546
 711,0.00002117,0.00211002,0.00267385,-0.00001803,0.00117177,-0.0002471
 5,0.00001613,0.00028136,0.00010582,0.00000030,0.00005327,-0.00107467,-
 0.00000186,0.28618848,0.00094066,-0.00102401,-0.00000641,0.00294121,-0
 .00103419,0.00001110,0.01335725,0.01074323,-0.00001107,-0.12561444,-0.
 12871677,0.00001036,-0.02814523,-0.00752192,-0.00000904,0.00091219,-0.
 00635671,0.00000997,0.00009639,0.00021349,-0.00000005,0.00089536,0.000
 37036,-0.00000116,0.13687910,0.12816595,-0.00000248,-0.00000118,-0.006
 09988,0.00000294,-0.00000109,0.00783818,-0.00000231,0.00000142,0.00627
 089,0.00000135,0.00000015,-0.03247358,0.00000031,-0.00000198,0.0062871
 2,0.00000131,0.00000176,0.00783318,-0.00000029,-0.00000096,-0.00106903
 ,0.00000048,0.00000022,0.00015396,0.00000005,-0.00000041,0.01986958,0.
 00485977,0.02788803,-0.00001380,-0.00357933,0.00232291,0.00002857,-0.0
 0208803,-0.00023691,-0.00003300,-0.00425339,-0.00219457,0.00003219,0.0
 0259357,-0.02653887,-0.00002753,-0.05615938,0.00119612,0.00002559,0.00
 097407,-0.00075865,0.00000036,0.00007934,0.00116372,-0.00000296,0.0002
 1658,-0.00113209,-0.00000015,0.05308987,0.00197532,-0.00900576,0.00001
 978,0.00304646,-0.00010572,-0.00004064,0.00011339,0.00001100,0.0000466
 9,-0.00248091,0.00029583,-0.00004549,0.00210392,-0.01153775,0.00003893
 ,-0.00049736,-0.33684856,-0.00003641,-0.00221852,-0.00062746,-0.000000
 48,-0.00123933,0.00014873,0.00000421,0.00083284,0.00016478,0.00000026,
 -0.00310198,0.35517316,0.00001927,0.00001422,0.00183322,-0.00001066,0.
 00000456,0.00654590,-0.00001521,-0.00000027,0.00002119,0.00002170,0.00
 001085,0.00302832,-0.00000679,-0.00001181,0.00742265,0.00000027,-0.000
 01531,-0.03567010,-0.00000321,-0.00000177,-0.00345924,0.00000351,-0.00
 000475,0.00065763,-0.00000252,-0.00000146,0.00016326,-0.00000395,0.000
 00561,0.02379886,-0.00890138,0.00319011,0.00000318,0.00695220,-0.04464
 375,-0.00000541,-0.07623648,-0.00079220,0.00000530,0.00611533,0.045571
 68,-0.00000493,-0.00756142,-0.00652101,0.00000432,0.00488186,0.0000961
 5,-0.00000485,0.00070063,-0.00153728,0.00000003,0.00287970,0.00134654,
 0.00000057,0.00262102,-0.00130214,0.00000022,0.00041343,0.00004733,0.0
 0000071,0.06913712,-0.00612569,0.00452778,-0.00000526,-0.00824908,-0.0
 4559386,0.00002217,-0.00160593,-0.30074781,-0.00003472,0.00569604,-0.0
 4681947,0.00003615,0.00059464,0.00486029,-0.00002997,0.00179070,-0.006
 36513,0.00001973,0.00161144,-0.00049568,0.00000125,0.00210273,0.001971
 44,-0.00000223,-0.00082871,0.00171879,0.00000171,0.00057126,0.00110427
 ,-0.00000346,0.00120193,0.39053076,0.00001673,0.00001221,0.00744810,-0
 .00000957,0.00000406,0.00659839,-0.00001235,-0.00000052,-0.04272142,0.
 00001801,0.00000911,0.00719341,-0.00000578,-0.00000955,0.00816471,-0.0
 0000004,-0.00001325,-0.00234018,-0.00000264,-0.00000130,0.00030387,0.0
 0000286,-0.00000405,-0.00379402,-0.00000214,-0.00000115,-0.00438623,-0
 .00000330,0.00000468,-0.00053967,0.00000055,-0.00000326,0.02403299,-0.
 00106822,-0.01165119,-0.00001572,-0.00221130,0.00597197,0.00002453,-0.
 00028635,-0.00329616,-0.00002186,-0.01214011,0.01531228,0.00001971,-0.
 24548689,0.09671302,-0.00001753,-0.05529636,0.02829560,0.00002207,-0.0
 0004410,0.00220496,-0.00000038,0.00109639,0.00033701,-0.00000258,0.001
 10453,0.00017174,-0.00000142,0.00385349,0.00141884,-0.00000312,-0.0010
 0202,0.00324067,-0.00000233,0.31148093,-0.00164934,-0.00422169,0.00001
 236,0.00441052,0.00126614,-0.00002586,-0.01055568,-0.00184089,0.000030
 09,0.05584002,-0.02922952,-0.00002941,0.09701819,-0.13147206,0.0000251
 3,-0.00867165,0.01662387,-0.00002316,-0.00106481,0.00030766,-0.0000003
 5,-0.00038694,0.00026963,0.00000267,-0.00038526,0.00327700,0.00000009,
 0.00082104,0.00122747,0.00000359,0.00334264,-0.00469138,0.00000300,-0.
 13871873,0.14848376,0.00001043,0.00000758,0.00750146,-0.00000605,0.000
 00256,-0.00236601,-0.00000747,-0.00000039,0.00819214,0.00001100,0.0000
 0560,0.00716851,-0.00000358,-0.00000576,-0.04269637,-0.00000009,-0.000
 00825,0.00656568,-0.00000161,-0.00000075,0.00029125,0.00000173,-0.0000
 0250,-0.00054507,-0.00000132,-0.00000068,-0.00438746,-0.00000202,0.000
 00286,-0.00380202,0.00000033,-0.00000210,0.00004007,-0.00000135,0.0000
 0184,0.02403783\\-0.00015134,-0.00009036,0.,-0.00018212,0.00029917,0.,
 0.00015090,-0.00026491,0.,0.00006018,0.00003035,0.,-0.00014916,0.00026
 536,0.,0.00016308,-0.00030748,0.,0.00006201,0.00003632,0.,0.00009914,-
 0.00009871,0.,-0.00004767,-0.00002619,0.,-0.00003558,0.00013604,0.,-0.
 00003665,0.00010042,0.,0.00006722,-0.00008002,0.\\\@


 DEPRESSION IS WAITING FOR YOUR SHIP TO COME IN,
 AND FINDING OUT IT'S THE TITANIC.
 Job cpu time:       0 days  0 hours  6 minutes 22.9 seconds.
 Elapsed time:       0 days  0 hours  6 minutes 23.4 seconds.
 File lengths (MBytes):  RWF=    114 Int=      0 D2E=      0 Chk=      7 Scr=      1
 Normal termination of Gaussian 16 at Wed Jan 29 16:00:02 2025.
