 Entering Gaussian System, Link 0=g16
 Initial command:
 /sw/cluster/pub/apps//g16/l1.exe "/data/natrosa/27910/Gau-763939.inp" -scrdir="/data/natrosa/27910/"
 Entering Link 1 = /sw/cluster/pub/apps//g16/l1.exe PID=    763940.
  
 Copyright (c) 1988,1990,1992,1993,1995,1998,2003,2009,2016,
            Gaussian, Inc.  All Rights Reserved.
  
 This is part of the Gaussian(R) 16 program.  It is based on
 the Gaussian(R) 09 system (copyright 2009, Gaussian, Inc.),
 the Gaussian(R) 03 system (copyright 2003, Gaussian, Inc.),
 the Gaussian(R) 98 system (copyright 1998, Gaussian, Inc.),
 the Gaussian(R) 94 system (copyright 1995, Gaussian, Inc.),
 the Gaussian 92(TM) system (copyright 1992, Gaussian, Inc.),
 the Gaussian 90(TM) system (copyright 1990, Gaussian, Inc.),
 the Gaussian 88(TM) system (copyright 1988, Gaussian, Inc.),
 the Gaussian 86(TM) system (copyright 1986, Carnegie Mellon
 University), and the Gaussian 82(TM) system (copyright 1983,
 Carnegie Mellon University). Gaussian is a federally registered
 trademark of Gaussian, Inc.
  
 This software contains proprietary and confidential information,
 including trade secrets, belonging to Gaussian, Inc.
  
 This software is provided under written license and may be
 used, copied, transmitted, or stored only in accord with that
 written license.
  
 The following legend is applicable only to US Government
 contracts under FAR:
  
                    RESTRICTED RIGHTS LEGEND
  
 Use, reproduction and disclosure by the US Government is
 subject to restrictions as set forth in subparagraphs (a)
 and (c) of the Commercial Computer Software - Restricted
 Rights clause in FAR 52.227-19.
  
 Gaussian, Inc.
 340 Quinnipiac St., Bldg. 40, Wallingford CT 06492
  
  
 ---------------------------------------------------------------
 Warning -- This program may not be used in any manner that
 competes with the business of Gaussian, Inc. or will provide
 assistance to any competitor of Gaussian, Inc.  The licensee
 of this program is prohibited from giving any competitor of
 Gaussian, Inc. access to this program.  By using this program,
 the user acknowledges that Gaussian, Inc. is engaged in the
 business of creating and licensing software in the field of
 computational chemistry and represents and warrants to the
 licensee that it is not a competitor of Gaussian, Inc. and that
 it will not use this program in any manner prohibited above.
 ---------------------------------------------------------------
  

 Cite this work as:
 Gaussian 16, Revision A.03,
 M. J. Frisch, G. W. Trucks, H. B. Schlegel, G. E. Scuseria, 
 M. A. Robb, J. R. Cheeseman, G. Scalmani, V. Barone, 
 G. A. Petersson, H. Nakatsuji, X. Li, M. Caricato, A. V. Marenich, 
 J. Bloino, B. G. Janesko, R. Gomperts, B. Mennucci, H. P. Hratchian, 
 J. V. Ortiz, A. F. Izmaylov, J. L. Sonnenberg, D. Williams-Young, 
 F. Ding, F. Lipparini, F. Egidi, J. Goings, B. Peng, A. Petrone, 
 T. Henderson, D. Ranasinghe, V. G. Zakrzewski, J. Gao, N. Rega, 
 G. Zheng, W. Liang, M. Hada, M. Ehara, K. Toyota, R. Fukuda, 
 J. Hasegawa, M. Ishida, T. Nakajima, Y. Honda, O. Kitao, H. Nakai, 
 T. Vreven, K. Throssell, J. A. Montgomery, Jr., J. E. Peralta, 
 F. Ogliaro, M. J. Bearpark, J. J. Heyd, E. N. Brothers, K. N. Kudin, 
 V. N. Staroverov, T. A. Keith, R. Kobayashi, J. Normand, 
 K. Raghavachari, A. P. Rendell, J. C. Burant, S. S. Iyengar, 
 J. Tomasi, M. Cossi, J. M. Millam, M. Klene, C. Adamo, R. Cammi, 
 J. W. Ochterski, R. L. Martin, K. Morokuma, O. Farkas, 
 J. B. Foresman, and D. J. Fox, Gaussian, Inc., Wallingford CT, 2016.
 
 ******************************************
 Gaussian 16:  ES64L-G16RevA.03 25-Dec-2016
                17-Jan-2025 
 ******************************************
 %chk=1-3-DFB.chk
 -----------------------------------------------
 #p PBE1PBE/6-311++G(d,p) density=current nosymm
 -----------------------------------------------
 1/30=1,38=1,172=1/1;
 2/12=2,15=1,17=6,18=5,40=1/2;
 3/5=4,6=6,7=1111,11=2,25=1,30=1,74=-13/1,2,3;
 4//1;
 5/5=2,38=5/2;
 6/7=2,8=2,9=2,10=2,22=-1,28=1/1;
 99/5=1,9=1/99;
 Leave Link    1 at Fri Jan 17 11:49:11 2025, MaxMem=           0 cpu:               0.0 elap:               0.0
 (Enter /sw/cluster/pub/apps//g16/l101.exe)
 ----------
 1 3-DFB SP
 ----------
 Symbolic Z-matrix:
 Charge =  0 Multiplicity = 1
 C                     1.19746   0.69139  0. 
 C                     1.21126  -0.69862   0. 
 C                    -0.00207  -1.36383   0. 
 C                    -1.21803  -0.70327   0. 
 C                    -1.18206   0.68012   0. 
 C                     0.00062   1.3984    0. 
 H                     2.13668   1.23358  0. 
 H                     2.13562  -1.26299   0. 
 H                    -2.15562  -1.24443  0. 
 H                    -0.02589   2.48108   0. 
 F                    -0.00843  -2.70471   0. 
 F                    -2.3466    1.34486  0. 
 
 ITRead=  0  0  0  0  0  0  0  0  0  0  0  0
 MicOpt= -1 -1 -1 -1 -1 -1 -1 -1 -1 -1 -1 -1
 NAtoms=     12 NQM=       12 NQMF=       0 NMMI=      0 NMMIF=      0
                NMic=       0 NMicF=      0.
                    Isotopes and Nuclear Properties:
 (Nuclear quadrupole moments (NQMom) in fm**2, nuclear magnetic moments (NMagM)
  in nuclear magnetons)

  Atom         1           2           3           4           5           6           7           8           9          10
 IAtWgt=          12          12          12          12          12          12           1           1           1           1
 AtmWgt=  12.0000000  12.0000000  12.0000000  12.0000000  12.0000000  12.0000000   1.0078250   1.0078250   1.0078250   1.0078250
 NucSpn=           0           0           0           0           0           0           1           1           1           1
 AtZEff=  -0.0000000  -0.0000000  -0.0000000  -0.0000000  -0.0000000  -0.0000000  -0.0000000  -0.0000000  -0.0000000  -0.0000000
 NQMom=    0.0000000   0.0000000   0.0000000   0.0000000   0.0000000   0.0000000   0.0000000   0.0000000   0.0000000   0.0000000
 NMagM=    0.0000000   0.0000000   0.0000000   0.0000000   0.0000000   0.0000000   2.7928460   2.7928460   2.7928460   2.7928460
 AtZNuc=   6.0000000   6.0000000   6.0000000   6.0000000   6.0000000   6.0000000   1.0000000   1.0000000   1.0000000   1.0000000

  Atom        11          12
 IAtWgt=          19          19
 AtmWgt=  18.9984032  18.9984032
 NucSpn=           1           1
 AtZEff=  -0.0000000  -0.0000000
 NQMom=    0.0000000   0.0000000
 NMagM=    2.6288670   2.6288670
 AtZNuc=   9.0000000   9.0000000
 Leave Link  101 at Fri Jan 17 11:49:11 2025, MaxMem=   104857600 cpu:               0.0 elap:               0.0
 (Enter /sw/cluster/pub/apps//g16/l202.exe)
                          Input orientation:                          
 ---------------------------------------------------------------------
 Center     Atomic      Atomic             Coordinates (Angstroms)
 Number     Number       Type             X           Y           Z
 ---------------------------------------------------------------------
      1          6           0        1.197458    0.691394   -0.000000
      2          6           0        1.211262   -0.698622    0.000000
      3          6           0       -0.002068   -1.363826    0.000000
      4          6           0       -1.218033   -0.703267    0.000000
      5          6           0       -1.182063    0.680119    0.000000
      6          6           0        0.000622    1.398397    0.000000
      7          1           0        2.136679    1.233579   -0.000000
      8          1           0        2.135615   -1.262987    0.000000
      9          1           0       -2.155618   -1.244429   -0.000000
     10          1           0       -0.025888    2.481081    0.000000
     11          9           0       -0.008433   -2.704712    0.000000
     12          9           0       -2.346599    1.344857   -0.000000
 ---------------------------------------------------------------------
                    Distance matrix (angstroms):
                    1          2          3          4          5
     1  C    0.000000
     2  C    1.390085   0.000000
     3  C    2.379662   1.383714   0.000000
     4  C    2.789207   2.429299   1.383802   0.000000
     5  C    2.379548   2.762052   2.360106   1.383854   0.000000
     6  C    1.390061   2.421392   2.762224   2.429425   1.383715
     7  H    1.084482   2.142382   3.364632   3.873688   3.364576
     8  H    2.167890   1.083023   2.140061   3.400036   3.844822
     9  H    3.871761   3.410833   2.156857   1.082554   2.156779
    10  H    2.167846   3.411899   3.844981   3.400188   2.140141
    11  F    3.603847   2.347776   1.340901   2.338571   3.582526
    12  F    3.603797   4.102948   3.582428   2.338477   1.340902
                    6          7          8          9         10
     6  C    0.000000
     7  H    2.142407   0.000000
     8  H    3.411915   2.496566   0.000000
     9  H    3.410850   4.956242   4.291274   0.000000
    10  H    1.083009   2.496590   4.323210   4.291290   0.000000
    11  F    4.103119   4.484600   2.583702   2.596696   5.185822
    12  F    2.347831   4.484659   5.185663   2.596320   2.583931
                   11         12
    11  F    0.000000
    12  F    4.676113   0.000000
 Symmetry turned off by external request.
 Stoichiometry    C6H4F2
 Framework group  CS[SG(C6H4F2)]
 Deg. of freedom    21
 Full point group                 CS      NOp   2
 Rotational constants (GHZ):           3.7687127           1.7687449           1.2037819
 Leave Link  202 at Fri Jan 17 11:49:11 2025, MaxMem=   104857600 cpu:               0.0 elap:               0.0
 (Enter /sw/cluster/pub/apps//g16/l301.exe)
 Standard basis: 6-311++G(d,p) (5D, 7F)
 Ernie: Thresh=  0.10000D-02 Tol=  0.10000D-05 Strict=F.
   204 basis functions,   324 primitive gaussians,   212 cartesian basis functions
    29 alpha electrons       29 beta electrons
       nuclear repulsion energy       343.5582985214 Hartrees.
 IExCor= 1009 DFT=T Ex+Corr=PBE1PBE ExCW=0 ScaHFX=  0.250000
 ScaDFX=  0.750000  0.750000  1.000000  1.000000 ScalE2=  1.000000  1.000000
 IRadAn=      5 IRanWt=     -1 IRanGd=            0 ICorTp=0 IEmpDi=  4
 NAtoms=   12 NActive=   12 NUniq=   12 SFac= 1.00D+00 NAtFMM=   60 NAOKFM=F Big=F
 Integral buffers will be    131072 words long.
 Raffenetti 2 integral format.
 Two-electron integral symmetry is turned off.
 Leave Link  301 at Fri Jan 17 11:49:11 2025, MaxMem=   104857600 cpu:               0.0 elap:               0.0
 (Enter /sw/cluster/pub/apps//g16/l302.exe)
 NPDir=0 NMtPBC=     1 NCelOv=     1 NCel=       1 NClECP=     1 NCelD=      1
         NCelK=      1 NCelE2=     1 NClLst=     1 CellRange=     0.0.
 One-electron integrals computed using PRISM.
 NBasis=   204 RedAO= T EigKep=  2.14D-06  NBF=   204
 NBsUse=   204 1.00D-06 EigRej= -1.00D+00 NBFU=   204
 Precomputing XC quadrature grid using
 IXCGrd= 4 IRadAn=           5 IRanWt=          -1 IRanGd=           0 AccXCQ= 0.00D+00.
 Generated NRdTot=       0 NPtTot=           0 NUsed=           0 NTot=          32
 NSgBfM=   212   212   212   212   212 MxSgAt=    12 MxSgA2=    12.
 Leave Link  302 at Fri Jan 17 11:49:12 2025, MaxMem=   104857600 cpu:               0.1 elap:               0.1
 (Enter /sw/cluster/pub/apps//g16/l303.exe)
 DipDrv:  MaxL=1.
 Leave Link  303 at Fri Jan 17 11:49:12 2025, MaxMem=   104857600 cpu:               0.0 elap:               0.0
 (Enter /sw/cluster/pub/apps//g16/l401.exe)
 ExpMin= 3.60D-02 ExpMax= 1.14D+04 ExpMxC= 1.72D+03 IAcc=3 IRadAn=         5 AccDes= 0.00D+00
 Harris functional with IExCor= 1009 and IRadAn=       5 diagonalized for initial guess.
 HarFok:  IExCor= 1009 AccDes= 0.00D+00 IRadAn=         5 IDoV= 1 UseB2=F ITyADJ=14
 ICtDFT=  3500011 ScaDFX=  1.000000  1.000000  1.000000  1.000000
 FoFCou: FMM=F IPFlag=           0 FMFlag=      100000 FMFlg1=           0
         NFxFlg=           0 DoJE=T BraDBF=F KetDBF=T FulRan=T
         wScrn=  0.000000 ICntrl=       500 IOpCl=  0 I1Cent=   200000004 NGrid=           0
         NMat0=    1 NMatS0=      1 NMatT0=    0 NMatD0=    1 NMtDS0=    0 NMtDT0=    0
 Symmetry not used in FoFCou.
 Harris En= -430.448964062354    
 JPrj=0 DoOrth=F DoCkMO=F.
 Leave Link  401 at Fri Jan 17 11:49:13 2025, MaxMem=   104857600 cpu:               1.2 elap:               1.2
 (Enter /sw/cluster/pub/apps//g16/l502.exe)
 Two-electron integral symmetry not used.
 Closed shell SCF:
 Using DIIS extrapolation, IDIIS=  1040.
 NGot=   104857600 LenX=   104764860 LenY=   104719475
 Requested convergence on RMS density matrix=1.00D-08 within 128 cycles.
 Requested convergence on MAX density matrix=1.00D-06.
 Requested convergence on             energy=1.00D-06.
 No special actions if energy rises.
 Fock matrices will be formed incrementally for  20 cycles.

 Cycle   1  Pass 1  IDiag  1:
 FoFJK:  IHMeth= 1 ICntrl=       0 DoSepK=F KAlg= 0 I1Cent=           0 FoldK=F
 IRaf= 970000000 NMat=       1 IRICut=       1 DoRegI=T DoRafI=F ISym2E= 0 IDoP0=0 IntGTp=1.
 FoFCou: FMM=F IPFlag=           0 FMFlag=      100000 FMFlg1=           0
         NFxFlg=           0 DoJE=F BraDBF=F KetDBF=F FulRan=T
         wScrn=  0.000000 ICntrl=         0 IOpCl=  0 I1Cent=           0 NGrid=           0
         NMat0=    1 NMatS0=      1 NMatT0=    0 NMatD0=    1 NMtDS0=    0 NMtDT0=    0
 Symmetry not used in FoFCou.
 E= -430.232165999543    
 DIIS: error= 2.43D-02 at cycle   1 NSaved=   1.
 NSaved= 1 IEnMin= 1 EnMin= -430.232165999543     IErMin= 1 ErrMin= 2.43D-02
 ErrMax= 2.43D-02  0.00D+00 EMaxC= 1.00D-01 BMatC= 1.69D-01 BMatP= 1.69D-01
 IDIUse=3 WtCom= 7.57D-01 WtEn= 2.43D-01
 Coeff-Com:  0.100D+01
 Coeff-En:   0.100D+01
 Coeff:      0.100D+01
 Gap=     0.265 Goal=   None    Shift=    0.000
 GapD=    0.265 DampG=1.000 DampE=0.500 DampFc=0.5000 IDamp=-1.
 Damping current iteration by 5.00D-01
 RMSDP=1.30D-02 MaxDP=5.97D-01              OVMax= 2.58D-01

 Cycle   2  Pass 1  IDiag  1:
 RMSU=  3.72D-03    CP:  9.08D-01
 E= -430.296664938554     Delta-E=       -0.064498939011 Rises=F Damp=T
 DIIS: error= 6.15D-03 at cycle   2 NSaved=   2.
 NSaved= 2 IEnMin= 2 EnMin= -430.296664938554     IErMin= 2 ErrMin= 6.15D-03
 ErrMax= 6.15D-03  0.00D+00 EMaxC= 1.00D-01 BMatC= 1.36D-02 BMatP= 1.69D-01
 IDIUse=3 WtCom= 9.39D-01 WtEn= 6.15D-02
 Coeff-Com:  0.121D-01 0.988D+00
 Coeff-En:   0.103D+00 0.897D+00
 Coeff:      0.177D-01 0.982D+00
 Gap=     0.304 Goal=   None    Shift=    0.000
 RMSDP=3.73D-03 MaxDP=1.11D-01 DE=-6.45D-02 OVMax= 1.91D-01

 Cycle   3  Pass 1  IDiag  1:
 RMSU=  3.18D-03    CP:  8.75D-01  9.21D-01
 E= -430.368616999396     Delta-E=       -0.071952060842 Rises=F Damp=F
 DIIS: error= 1.24D-02 at cycle   3 NSaved=   3.
 NSaved= 3 IEnMin= 3 EnMin= -430.368616999396     IErMin= 2 ErrMin= 6.15D-03
 ErrMax= 1.24D-02  0.00D+00 EMaxC= 1.00D-01 BMatC= 1.02D-02 BMatP= 1.36D-02
 IDIUse=3 WtCom= 8.76D-01 WtEn= 1.24D-01
 Coeff-Com: -0.594D-01 0.483D+00 0.577D+00
 Coeff-En:   0.000D+00 0.000D+00 0.100D+01
 Coeff:     -0.521D-01 0.423D+00 0.629D+00
 Gap=     0.248 Goal=   None    Shift=    0.000
 RMSDP=2.27D-03 MaxDP=1.62D-01 DE=-7.20D-02 OVMax= 6.60D-02

 Cycle   4  Pass 1  IDiag  1:
 RMSU=  1.04D-03    CP:  8.49D-01  1.16D+00  7.00D-01
 E= -430.375661378833     Delta-E=       -0.007044379437 Rises=F Damp=F
 DIIS: error= 6.95D-03 at cycle   4 NSaved=   4.
 NSaved= 4 IEnMin= 4 EnMin= -430.375661378833     IErMin= 2 ErrMin= 6.15D-03
 ErrMax= 6.95D-03  0.00D+00 EMaxC= 1.00D-01 BMatC= 2.76D-03 BMatP= 1.02D-02
 IDIUse=3 WtCom= 9.31D-01 WtEn= 6.95D-02
 Coeff-Com: -0.292D-01 0.110D+00 0.370D+00 0.548D+00
 Coeff-En:   0.000D+00 0.000D+00 0.238D+00 0.762D+00
 Coeff:     -0.272D-01 0.103D+00 0.361D+00 0.563D+00
 Gap=     0.246 Goal=   None    Shift=    0.000
 RMSDP=7.50D-04 MaxDP=2.23D-02 DE=-7.04D-03 OVMax= 2.49D-02

 Cycle   5  Pass 1  IDiag  1:
 RMSU=  3.86D-04    CP:  8.42D-01  1.17D+00  7.80D-01  5.63D-01
 E= -430.378224451761     Delta-E=       -0.002563072928 Rises=F Damp=F
 DIIS: error= 1.20D-03 at cycle   5 NSaved=   5.
 NSaved= 5 IEnMin= 5 EnMin= -430.378224451761     IErMin= 5 ErrMin= 1.20D-03
 ErrMax= 1.20D-03  0.00D+00 EMaxC= 1.00D-01 BMatC= 8.41D-05 BMatP= 2.76D-03
 IDIUse=3 WtCom= 9.88D-01 WtEn= 1.20D-02
 Coeff-Com: -0.106D-01 0.280D-01 0.147D+00 0.278D+00 0.558D+00
 Coeff-En:   0.000D+00 0.000D+00 0.000D+00 0.000D+00 0.100D+01
 Coeff:     -0.104D-01 0.277D-01 0.146D+00 0.274D+00 0.563D+00
 Gap=     0.245 Goal=   None    Shift=    0.000
 RMSDP=1.29D-04 MaxDP=3.27D-03 DE=-2.56D-03 OVMax= 5.96D-03

 Cycle   6  Pass 1  IDiag  1:
 RMSU=  7.28D-05    CP:  8.43D-01  1.17D+00  7.70D-01  6.09D-01  7.96D-01
 E= -430.378303822241     Delta-E=       -0.000079370481 Rises=F Damp=F
 DIIS: error= 2.77D-04 at cycle   6 NSaved=   6.
 NSaved= 6 IEnMin= 6 EnMin= -430.378303822241     IErMin= 6 ErrMin= 2.77D-04
 ErrMax= 2.77D-04  0.00D+00 EMaxC= 1.00D-01 BMatC= 9.27D-06 BMatP= 8.41D-05
 IDIUse=3 WtCom= 9.97D-01 WtEn= 2.77D-03
 Coeff-Com: -0.205D-02 0.298D-02 0.389D-01 0.883D-01 0.302D+00 0.569D+00
 Coeff-En:   0.000D+00 0.000D+00 0.000D+00 0.000D+00 0.249D-01 0.975D+00
 Coeff:     -0.205D-02 0.297D-02 0.388D-01 0.881D-01 0.302D+00 0.571D+00
 Gap=     0.246 Goal=   None    Shift=    0.000
 RMSDP=4.90D-05 MaxDP=2.24D-03 DE=-7.94D-05 OVMax= 1.33D-03

 Cycle   7  Pass 1  IDiag  1:
 RMSU=  2.65D-05    CP:  8.43D-01  1.17D+00  7.74D-01  6.07D-01  8.27D-01
                    CP:  6.89D-01
 E= -430.378311404009     Delta-E=       -0.000007581768 Rises=F Damp=F
 DIIS: error= 6.39D-05 at cycle   7 NSaved=   7.
 NSaved= 7 IEnMin= 7 EnMin= -430.378311404009     IErMin= 7 ErrMin= 6.39D-05
 ErrMax= 6.39D-05  0.00D+00 EMaxC= 1.00D-01 BMatC= 3.59D-07 BMatP= 9.27D-06
 IDIUse=1 WtCom= 1.00D+00 WtEn= 0.00D+00
 Coeff-Com: -0.490D-03 0.174D-03 0.126D-01 0.290D-01 0.110D+00 0.265D+00
 Coeff-Com:  0.584D+00
 Coeff:     -0.490D-03 0.174D-03 0.126D-01 0.290D-01 0.110D+00 0.265D+00
 Coeff:      0.584D+00
 Gap=     0.246 Goal=   None    Shift=    0.000
 RMSDP=1.58D-05 MaxDP=1.25D-03 DE=-7.58D-06 OVMax= 1.80D-04

 Cycle   8  Pass 1  IDiag  1:
 RMSU=  4.91D-06    CP:  8.43D-01  1.17D+00  7.76D-01  6.08D-01  8.12D-01
                    CP:  7.10D-01  8.28D-01
 E= -430.378311640926     Delta-E=       -0.000000236917 Rises=F Damp=F
 DIIS: error= 1.86D-05 at cycle   8 NSaved=   8.
 NSaved= 8 IEnMin= 8 EnMin= -430.378311640926     IErMin= 8 ErrMin= 1.86D-05
 ErrMax= 1.86D-05  0.00D+00 EMaxC= 1.00D-01 BMatC= 4.44D-08 BMatP= 3.59D-07
 IDIUse=1 WtCom= 1.00D+00 WtEn= 0.00D+00
 Coeff-Com:  0.200D-03-0.648D-03-0.356D-03-0.599D-03 0.131D-02 0.360D-01
 Coeff-Com:  0.277D+00 0.687D+00
 Coeff:      0.200D-03-0.648D-03-0.356D-03-0.599D-03 0.131D-02 0.360D-01
 Coeff:      0.277D+00 0.687D+00
 Gap=     0.246 Goal=   None    Shift=    0.000
 RMSDP=8.64D-06 MaxDP=3.92D-04 DE=-2.37D-07 OVMax= 3.57D-05

 Cycle   9  Pass 1  IDiag  1:
 RMSU=  1.11D-06    CP:  8.43D-01  1.17D+00  7.76D-01  6.07D-01  8.19D-01
                    CP:  7.29D-01  8.26D-01  9.27D-01
 E= -430.378311678684     Delta-E=       -0.000000037758 Rises=F Damp=F
 DIIS: error= 2.16D-06 at cycle   9 NSaved=   9.
 NSaved= 9 IEnMin= 9 EnMin= -430.378311678684     IErMin= 9 ErrMin= 2.16D-06
 ErrMax= 2.16D-06  0.00D+00 EMaxC= 1.00D-01 BMatC= 6.99D-10 BMatP= 4.44D-08
 IDIUse=1 WtCom= 1.00D+00 WtEn= 0.00D+00
 Coeff-Com:  0.786D-04-0.167D-03-0.587D-03-0.140D-02-0.540D-02-0.273D-02
 Coeff-Com:  0.393D-01 0.149D+00 0.822D+00
 Coeff:      0.786D-04-0.167D-03-0.587D-03-0.140D-02-0.540D-02-0.273D-02
 Coeff:      0.393D-01 0.149D+00 0.822D+00
 Gap=     0.246 Goal=   None    Shift=    0.000
 RMSDP=7.02D-07 MaxDP=3.72D-05 DE=-3.78D-08 OVMax= 1.07D-05

 Cycle  10  Pass 1  IDiag  1:
 RMSU=  1.70D-07    CP:  8.43D-01  1.17D+00  7.76D-01  6.07D-01  8.19D-01
                    CP:  7.29D-01  8.41D-01  9.52D-01  9.28D-01
 E= -430.378311679256     Delta-E=       -0.000000000572 Rises=F Damp=F
 DIIS: error= 7.63D-07 at cycle  10 NSaved=  10.
 NSaved=10 IEnMin=10 EnMin= -430.378311679256     IErMin=10 ErrMin= 7.63D-07
 ErrMax= 7.63D-07  0.00D+00 EMaxC= 1.00D-01 BMatC= 7.69D-11 BMatP= 6.99D-10
 IDIUse=1 WtCom= 1.00D+00 WtEn= 0.00D+00
 Coeff-Com:  0.207D-04-0.393D-04-0.121D-03-0.328D-03-0.156D-02-0.939D-03
 Coeff-Com:  0.801D-02 0.220D-01 0.258D+00 0.715D+00
 Coeff:      0.207D-04-0.393D-04-0.121D-03-0.328D-03-0.156D-02-0.939D-03
 Coeff:      0.801D-02 0.220D-01 0.258D+00 0.715D+00
 Gap=     0.246 Goal=   None    Shift=    0.000
 RMSDP=1.03D-07 MaxDP=3.83D-06 DE=-5.72D-10 OVMax= 3.76D-06

 Cycle  11  Pass 1  IDiag  1:
 RMSU=  5.75D-08    CP:  8.43D-01  1.17D+00  7.76D-01  6.07D-01  8.18D-01
                    CP:  7.30D-01  8.40D-01  9.48D-01  9.39D-01  9.03D-01
 E= -430.378311679313     Delta-E=       -0.000000000057 Rises=F Damp=F
 DIIS: error= 4.24D-07 at cycle  11 NSaved=  11.
 NSaved=11 IEnMin=11 EnMin= -430.378311679313     IErMin=11 ErrMin= 4.24D-07
 ErrMax= 4.24D-07  0.00D+00 EMaxC= 1.00D-01 BMatC= 2.52D-11 BMatP= 7.69D-11
 IDIUse=1 WtCom= 1.00D+00 WtEn= 0.00D+00
 Coeff-Com: -0.119D-05 0.518D-05 0.243D-04 0.321D-04-0.510D-04-0.328D-03
 Coeff-Com: -0.344D-02-0.200D-01-0.148D-01 0.398D+00 0.640D+00
 Coeff:     -0.119D-05 0.518D-05 0.243D-04 0.321D-04-0.510D-04-0.328D-03
 Coeff:     -0.344D-02-0.200D-01-0.148D-01 0.398D+00 0.640D+00
 Gap=     0.246 Goal=   None    Shift=    0.000
 RMSDP=6.49D-08 MaxDP=2.81D-06 DE=-5.71D-11 OVMax= 1.10D-06

 Cycle  12  Pass 1  IDiag  1:
 RMSU=  2.75D-08    CP:  8.43D-01  1.17D+00  7.76D-01  6.07D-01  8.18D-01
                    CP:  7.30D-01  8.39D-01  9.52D-01  9.56D-01  1.01D+00
                    CP:  7.71D-01
 E= -430.378311679335     Delta-E=       -0.000000000021 Rises=F Damp=F
 DIIS: error= 2.84D-08 at cycle  12 NSaved=  12.
 NSaved=12 IEnMin=12 EnMin= -430.378311679335     IErMin=12 ErrMin= 2.84D-08
 ErrMax= 2.84D-08  0.00D+00 EMaxC= 1.00D-01 BMatC= 1.22D-13 BMatP= 2.52D-11
 IDIUse=1 WtCom= 1.00D+00 WtEn= 0.00D+00
 Coeff-Com: -0.221D-06 0.587D-06 0.587D-05 0.122D-04 0.301D-04 0.430D-04
 Coeff-Com: -0.275D-03-0.182D-02-0.855D-02 0.632D-02 0.157D-01 0.989D+00
 Coeff:     -0.221D-06 0.587D-06 0.587D-05 0.122D-04 0.301D-04 0.430D-04
 Coeff:     -0.275D-03-0.182D-02-0.855D-02 0.632D-02 0.157D-01 0.989D+00
 Gap=     0.246 Goal=   None    Shift=    0.000
 RMSDP=1.41D-08 MaxDP=6.72D-07 DE=-2.14D-11 OVMax= 1.54D-07

 Cycle  13  Pass 1  IDiag  1:
 RMSU=  3.25D-09    CP:  8.43D-01  1.17D+00  7.76D-01  6.07D-01  8.18D-01
                    CP:  7.30D-01  8.39D-01  9.52D-01  9.56D-01  1.02D+00
                    CP:  7.90D-01  1.02D+00
 E= -430.378311679339     Delta-E=       -0.000000000005 Rises=F Damp=F
 DIIS: error= 5.07D-09 at cycle  13 NSaved=  13.
 NSaved=13 IEnMin=13 EnMin= -430.378311679339     IErMin=13 ErrMin= 5.07D-09
 ErrMax= 5.07D-09  0.00D+00 EMaxC= 1.00D-01 BMatC= 5.28D-15 BMatP= 1.22D-13
 IDIUse=1 WtCom= 1.00D+00 WtEn= 0.00D+00
 Coeff-Com: -0.196D-07 0.386D-07 0.114D-05 0.259D-05 0.670D-05 0.198D-04
 Coeff-Com: -0.276D-05-0.158D-03-0.180D-02-0.474D-02-0.989D-02 0.231D+00
 Coeff-Com:  0.785D+00
 Coeff:     -0.196D-07 0.386D-07 0.114D-05 0.259D-05 0.670D-05 0.198D-04
 Coeff:     -0.276D-05-0.158D-03-0.180D-02-0.474D-02-0.989D-02 0.231D+00
 Coeff:      0.785D+00
 Gap=     0.246 Goal=   None    Shift=    0.000
 RMSDP=2.06D-09 MaxDP=1.03D-07 DE=-4.55D-12 OVMax= 4.47D-08

 SCF Done:  E(RPBE1PBE) =  -430.378311679     A.U. after   13 cycles
            NFock= 13  Conv=0.21D-08     -V/T= 2.0032
 KE= 4.290185130148D+02 PE=-1.699432851675D+03 EE= 4.964777284591D+02
 Leave Link  502 at Fri Jan 17 11:49:45 2025, MaxMem=   104857600 cpu:              31.6 elap:              31.7
 (Enter /sw/cluster/pub/apps//g16/l601.exe)
 Copying SCF densities to generalized density rwf, IOpCl= 0 IROHF=0.

 **********************************************************************

            Population analysis using the SCF density.

 **********************************************************************

 Alpha  occ. eigenvalues --  -24.79302 -24.79302 -10.33040 -10.33039 -10.25603
 Alpha  occ. eigenvalues --  -10.24940 -10.24559 -10.24556  -1.27799  -1.27749
 Alpha  occ. eigenvalues --   -0.91434  -0.80330  -0.79401  -0.66926  -0.66161
 Alpha  occ. eigenvalues --   -0.59730  -0.55281  -0.53637  -0.52210  -0.50858
 Alpha  occ. eigenvalues --   -0.49510  -0.47442  -0.46412  -0.42352  -0.40367
 Alpha  occ. eigenvalues --   -0.38859  -0.38751  -0.28757  -0.27414
 Alpha virt. eigenvalues --   -0.02847  -0.01510   0.00146   0.01697   0.02193
 Alpha virt. eigenvalues --    0.03742   0.05335   0.05542   0.06166   0.08956
 Alpha virt. eigenvalues --    0.09094   0.09970   0.10781   0.11864   0.12915
 Alpha virt. eigenvalues --    0.12939   0.13327   0.13595   0.14059   0.14187
 Alpha virt. eigenvalues --    0.14257   0.14378   0.15407   0.15699   0.16530
 Alpha virt. eigenvalues --    0.18236   0.19549   0.20424   0.21251   0.22157
 Alpha virt. eigenvalues --    0.22600   0.25968   0.26433   0.27528   0.27986
 Alpha virt. eigenvalues --    0.28190   0.29371   0.30890   0.34331   0.34730
 Alpha virt. eigenvalues --    0.35789   0.36543   0.36562   0.37134   0.40422
 Alpha virt. eigenvalues --    0.41339   0.43260   0.44102   0.45810   0.48449
 Alpha virt. eigenvalues --    0.51880   0.52199   0.54161   0.56685   0.57147
 Alpha virt. eigenvalues --    0.57886   0.58682   0.59504   0.61737   0.62138
 Alpha virt. eigenvalues --    0.62603   0.68015   0.68820   0.69707   0.75601
 Alpha virt. eigenvalues --    0.77836   0.79375   0.81839   0.82099   0.86213
 Alpha virt. eigenvalues --    0.87318   0.87538   0.91361   0.92307   0.94078
 Alpha virt. eigenvalues --    0.94145   0.97941   0.99527   1.02830   1.03624
 Alpha virt. eigenvalues --    1.07457   1.08532   1.14996   1.20274   1.26710
 Alpha virt. eigenvalues --    1.35704   1.41734   1.43444   1.44407   1.45199
 Alpha virt. eigenvalues --    1.45483   1.50971   1.53931   1.54670   1.55530
 Alpha virt. eigenvalues --    1.55565   1.55960   1.59740   1.60681   1.65088
 Alpha virt. eigenvalues --    1.65433   1.70960   1.74514   1.78427   1.89282
 Alpha virt. eigenvalues --    1.90295   1.90412   1.90846   1.95589   1.96685
 Alpha virt. eigenvalues --    1.97714   2.01074   2.02524   2.05504   2.06019
 Alpha virt. eigenvalues --    2.08279   2.09727   2.22517   2.25416   2.32029
 Alpha virt. eigenvalues --    2.38539   2.44531   2.48194   2.49276   2.63862
 Alpha virt. eigenvalues --    2.64552   2.71091   2.73040   2.73611   2.74104
 Alpha virt. eigenvalues --    2.75599   2.76594   2.79109   2.83541   2.88321
 Alpha virt. eigenvalues --    2.88552   2.89182   3.08697   3.15759   3.17062
 Alpha virt. eigenvalues --    3.21609   3.36365   3.38210   3.50682   3.63864
 Alpha virt. eigenvalues --    3.65014   3.77074   3.79399   3.79434   3.85948
 Alpha virt. eigenvalues --    3.87139   4.00109   4.00404   4.03575   4.13911
 Alpha virt. eigenvalues --    4.14025   4.16177   4.17958   4.84514   4.88870
 Alpha virt. eigenvalues --    4.90005   6.35067   6.36652   6.48557   6.48685
 Alpha virt. eigenvalues --    6.76636   6.83156  23.62951  23.98416  24.04875
 Alpha virt. eigenvalues --   24.17869  24.19054  24.28932  66.94685  66.95205
          Condensed to atoms (all electrons):
               1          2          3          4          5          6
     1  C    7.692326  -2.398341   1.846272  -0.681274   1.846635  -2.398643
     2  C   -2.398341  10.017574  -2.406578  -0.370526  -1.901041   2.842601
     3  C    1.846272  -2.406578   8.961882  -2.330975   2.059232  -1.900794
     4  C   -0.681274  -0.370526  -2.330975  11.530761  -2.329867  -0.370476
     5  C    1.846635  -1.901041   2.059232  -2.329867   8.961965  -2.408052
     6  C   -2.398643   2.842601  -1.900794  -0.370476  -2.408052  10.019078
     7  H    0.498718  -0.195439   0.069114   0.053243   0.069151  -0.195439
     8  H   -0.077176   0.572651  -0.167920  -0.083469  -0.012125   0.082168
     9  H    0.023925  -0.062996  -0.127975   0.651177  -0.127945  -0.063004
    10  H   -0.077205   0.082193  -0.012124  -0.083449  -0.167975   0.572695
    11  F    0.046565  -0.336209   0.645484  -0.307991   0.025658  -0.028898
    12  F    0.046588  -0.028913   0.025685  -0.308038   0.645512  -0.336207
               7          8          9         10         11         12
     1  C    0.498718  -0.077176   0.023925  -0.077205   0.046565   0.046588
     2  C   -0.195439   0.572651  -0.062996   0.082193  -0.336209  -0.028913
     3  C    0.069114  -0.167920  -0.127975  -0.012124   0.645484   0.025685
     4  C    0.053243  -0.083469   0.651177  -0.083449  -0.307991  -0.308038
     5  C    0.069151  -0.012125  -0.127945  -0.167975   0.025658   0.645512
     6  C   -0.195439   0.082168  -0.063004   0.572695  -0.028898  -0.336207
     7  H    0.495343  -0.013388   0.002180  -0.013389   0.001362   0.001362
     8  H   -0.013388   0.483111  -0.001997   0.003211  -0.026091   0.000008
     9  H    0.002180  -0.001997   0.475301  -0.001997  -0.019066  -0.019073
    10  H   -0.013389   0.003211  -0.001997   0.483101   0.000008  -0.026087
    11  F    0.001362  -0.026091  -0.019066   0.000008   9.145013  -0.000463
    12  F    0.001362   0.000008  -0.019073  -0.026087  -0.000463   9.144980
 Mulliken charges:
               1
     1  C   -0.368390
     2  C    0.185022
     3  C   -0.661304
     4  C    0.630884
     5  C   -0.661147
     6  C    0.184970
     7  H    0.227181
     8  H    0.241017
     9  H    0.271470
    10  H    0.241018
    11  F   -0.145370
    12  F   -0.145352
 Sum of Mulliken charges =  -0.00000
 Mulliken charges with hydrogens summed into heavy atoms:
               1
     1  C   -0.141209
     2  C    0.426040
     3  C   -0.661304
     4  C    0.902354
     5  C   -0.661147
     6  C    0.425987
    11  F   -0.145370
    12  F   -0.145352
 Electronic spatial extent (au):  <R**2>=            905.8823
 Charge=             -0.0000 electrons
 Dipole moment (field-independent basis, Debye):
    X=              1.4126    Y=              0.8158    Z=              0.0000  Tot=              1.6313
 Quadrupole moment (field-independent basis, Debye-Ang):
   XX=            -42.5102   YY=            -46.3853   ZZ=            -46.9264
   XY=              3.3569   XZ=              0.0000   YZ=             -0.0000
 Traceless Quadrupole moment (field-independent basis, Debye-Ang):
   XX=              2.7637   YY=             -1.1113   ZZ=             -1.6524
   XY=              3.3569   XZ=              0.0000   YZ=             -0.0000
 Octapole moment (field-independent basis, Debye-Ang**2):
  XXX=             43.6687  YYY=             38.0946  ZZZ=             -0.0000  XYY=             14.5559
  XXY=             -4.4736  XXZ=              0.0000  XZZ=              8.8816  YZZ=              5.1283
  YYZ=              0.0000  XYZ=             -0.0000
 Hexadecapole moment (field-independent basis, Debye-Ang**3):
 XXXX=           -436.8286 YYYY=           -565.9839 ZZZZ=            -49.2979 XXXY=             64.5122
 XXXZ=              0.0000 YYYX=             47.3304 YYYZ=              0.0000 ZZZX=              0.0000
 ZZZY=              0.0000 XXYY=           -160.5231 XXZZ=            -86.2477 YYZZ=           -100.7897
 XXYZ=              0.0000 YYXZ=              0.0000 ZZXY=             12.5915
 N-N= 3.435582985214D+02 E-N=-1.699432851622D+03  KE= 4.290185130148D+02
 No NMR shielding tensors so no spin-rotation constants.
 Leave Link  601 at Fri Jan 17 11:49:45 2025, MaxMem=   104857600 cpu:               0.0 elap:               0.0
 (Enter /sw/cluster/pub/apps//g16/l9999.exe)
 1\1\GINC-N12\SP\RPBE1PBE\6-311++G(d,p)\C6H4F2\UNKNOWN\17-Jan-2025\0\\#
 p PBE1PBE/6-311++G(d,p) density=current nosymm\\1 3-DFB SP\\0,1\C,0,1.
 197458226,0.691394042,-0.000000001\C,0,1.211261629,-0.698622471,0.\C,0
 ,-0.002068088,-1.363826134,0.000000001\C,0,-1.218032632,-0.703266758,0
 .\C,0,-1.182063391,0.680119265,0.000000001\C,0,0.000621858,1.398396586
 ,0.\H,0,2.13667932,1.2335786,-0.000000001\H,0,2.135615483,-1.262987367
 ,0.000000001\H,0,-2.155618193,-1.244428888,-0.000000001\H,0,-0.0258881
 27,2.481080987,0.\F,0,-0.008432955,-2.704712017,0.\F,0,-2.346598622,1.
 344857337,-0.000000001\\Version=ES64L-G16RevA.03\HF=-430.3783117\RMSD=
 2.055e-09\Dipole=0.5557698,0.3209609,0.\Quadrupole=2.054776,-0.8262401
 ,-1.2285359,2.4957536,0.,0.\PG=CS [SG(C6H4F2)]\\@


 Mondays are the potholes in the road of life.
                                -- Tom Wilson
 Job cpu time:       0 days  0 hours  0 minutes 33.1 seconds.
 Elapsed time:       0 days  0 hours  0 minutes 33.2 seconds.
 File lengths (MBytes):  RWF=     27 Int=      0 D2E=      0 Chk=      4 Scr=      1
 Normal termination of Gaussian 16 at Fri Jan 17 11:49:45 2025.
