 Entering Gaussian System, Link 0=g16
 Initial command:
 /sw/cluster/pub/apps//g16/l1.exe "/data/natrosa/28464/Gau-17741.inp" -scrdir="/data/natrosa/28464/"
 Entering Link 1 = /sw/cluster/pub/apps//g16/l1.exe PID=     17742.
  
 Copyright (c) 1988,1990,1992,1993,1995,1998,2003,2009,2016,
            Gaussian, Inc.  All Rights Reserved.
  
 This is part of the Gaussian(R) 16 program.  It is based on
 the Gaussian(R) 09 system (copyright 2009, Gaussian, Inc.),
 the Gaussian(R) 03 system (copyright 2003, Gaussian, Inc.),
 the Gaussian(R) 98 system (copyright 1998, Gaussian, Inc.),
 the Gaussian(R) 94 system (copyright 1995, Gaussian, Inc.),
 the Gaussian 92(TM) system (copyright 1992, Gaussian, Inc.),
 the Gaussian 90(TM) system (copyright 1990, Gaussian, Inc.),
 the Gaussian 88(TM) system (copyright 1988, Gaussian, Inc.),
 the Gaussian 86(TM) system (copyright 1986, Carnegie Mellon
 University), and the Gaussian 82(TM) system (copyright 1983,
 Carnegie Mellon University). Gaussian is a federally registered
 trademark of Gaussian, Inc.
  
 This software contains proprietary and confidential information,
 including trade secrets, belonging to Gaussian, Inc.
  
 This software is provided under written license and may be
 used, copied, transmitted, or stored only in accord with that
 written license.
  
 The following legend is applicable only to US Government
 contracts under FAR:
  
                    RESTRICTED RIGHTS LEGEND
  
 Use, reproduction and disclosure by the US Government is
 subject to restrictions as set forth in subparagraphs (a)
 and (c) of the Commercial Computer Software - Restricted
 Rights clause in FAR 52.227-19.
  
 Gaussian, Inc.
 340 Quinnipiac St., Bldg. 40, Wallingford CT 06492
  
  
 ---------------------------------------------------------------
 Warning -- This program may not be used in any manner that
 competes with the business of Gaussian, Inc. or will provide
 assistance to any competitor of Gaussian, Inc.  The licensee
 of this program is prohibited from giving any competitor of
 Gaussian, Inc. access to this program.  By using this program,
 the user acknowledges that Gaussian, Inc. is engaged in the
 business of creating and licensing software in the field of
 computational chemistry and represents and warrants to the
 licensee that it is not a competitor of Gaussian, Inc. and that
 it will not use this program in any manner prohibited above.
 ---------------------------------------------------------------
  

 Cite this work as:
 Gaussian 16, Revision A.03,
 M. J. Frisch, G. W. Trucks, H. B. Schlegel, G. E. Scuseria, 
 M. A. Robb, J. R. Cheeseman, G. Scalmani, V. Barone, 
 G. A. Petersson, H. Nakatsuji, X. Li, M. Caricato, A. V. Marenich, 
 J. Bloino, B. G. Janesko, R. Gomperts, B. Mennucci, H. P. Hratchian, 
 J. V. Ortiz, A. F. Izmaylov, J. L. Sonnenberg, D. Williams-Young, 
 F. Ding, F. Lipparini, F. Egidi, J. Goings, B. Peng, A. Petrone, 
 T. Henderson, D. Ranasinghe, V. G. Zakrzewski, J. Gao, N. Rega, 
 G. Zheng, W. Liang, M. Hada, M. Ehara, K. Toyota, R. Fukuda, 
 J. Hasegawa, M. Ishida, T. Nakajima, Y. Honda, O. Kitao, H. Nakai, 
 T. Vreven, K. Throssell, J. A. Montgomery, Jr., J. E. Peralta, 
 F. Ogliaro, M. J. Bearpark, J. J. Heyd, E. N. Brothers, K. N. Kudin, 
 V. N. Staroverov, T. A. Keith, R. Kobayashi, J. Normand, 
 K. Raghavachari, A. P. Rendell, J. C. Burant, S. S. Iyengar, 
 J. Tomasi, M. Cossi, J. M. Millam, M. Klene, C. Adamo, R. Cammi, 
 J. W. Ochterski, R. L. Martin, K. Morokuma, O. Farkas, 
 J. B. Foresman, and D. J. Fox, Gaussian, Inc., Wallingford CT, 2016.
 
 ******************************************
 Gaussian 16:  ES64L-G16RevA.03 25-Dec-2016
                29-Jan-2025 
 ******************************************
 %chk=1-3-DFB-CAT.chk
 --------------------------------------------------------
 #p opt freq PBE1PBE/6-311++G(d,p) density=current nosymm
 --------------------------------------------------------
 1/18=20,19=15,26=3,38=1/1,3;
 2/9=110,12=2,15=1,17=6,18=5,40=1/2;
 3/5=4,6=6,7=1111,11=2,25=1,30=1,71=1,74=-13/1,2,3;
 4//1;
 5/5=2,38=5/2;
 6/7=2,8=2,9=2,10=2,22=-1,28=1/1;
 7/30=1/1,2,3,16;
 1/18=20,19=15,26=3/3(2);
 2/9=110,15=1/2;
 99//99;
 2/9=110,15=1/2;
 3/5=4,6=6,7=1111,11=2,25=1,30=1,71=1,74=-13/1,2,3;
 4/5=5,16=3,69=1/1;
 5/5=2,38=5/2;
 7/30=1/1,2,3,16;
 1/18=20,19=15,26=3/3(-5);
 2/9=110,15=1/2;
 6/7=2,8=2,9=2,10=2,19=2,22=-1,28=1/1;
 99/9=1/99;
 Leave Link    1 at Wed Jan 29 15:48:46 2025, MaxMem=           0 cpu:               0.0 elap:               0.0
 (Enter /sw/cluster/pub/apps//g16/l101.exe)
 ----------
 1 3-DFB SP
 ----------
 Symbolic Z-matrix:
 Charge =  1 Multiplicity = 2
 C                     1.19746   0.69139  0. 
 C                     1.21126  -0.69862   0. 
 C                    -0.00207  -1.36383   0. 
 C                    -1.21803  -0.70327   0. 
 C                    -1.18206   0.68012   0. 
 C                     0.00062   1.3984    0. 
 H                     2.13668   1.23358  0. 
 H                     2.13562  -1.26299   0. 
 H                    -2.15562  -1.24443  0. 
 H                    -0.02589   2.48108   0. 
 F                    -0.00843  -2.70471   0. 
 F                    -2.3466    1.34486  0. 
 
 ITRead=  0  0  0  0  0  0  0  0  0  0  0  0
 MicOpt= -1 -1 -1 -1 -1 -1 -1 -1 -1 -1 -1 -1
 NAtoms=     12 NQM=       12 NQMF=       0 NMMI=      0 NMMIF=      0
                NMic=       0 NMicF=      0.
                    Isotopes and Nuclear Properties:
 (Nuclear quadrupole moments (NQMom) in fm**2, nuclear magnetic moments (NMagM)
  in nuclear magnetons)

  Atom         1           2           3           4           5           6           7           8           9          10
 IAtWgt=          12          12          12          12          12          12           1           1           1           1
 AtmWgt=  12.0000000  12.0000000  12.0000000  12.0000000  12.0000000  12.0000000   1.0078250   1.0078250   1.0078250   1.0078250
 NucSpn=           0           0           0           0           0           0           1           1           1           1
 AtZEff=  -0.0000000  -0.0000000  -0.0000000  -0.0000000  -0.0000000  -0.0000000  -0.0000000  -0.0000000  -0.0000000  -0.0000000
 NQMom=    0.0000000   0.0000000   0.0000000   0.0000000   0.0000000   0.0000000   0.0000000   0.0000000   0.0000000   0.0000000
 NMagM=    0.0000000   0.0000000   0.0000000   0.0000000   0.0000000   0.0000000   2.7928460   2.7928460   2.7928460   2.7928460
 AtZNuc=   6.0000000   6.0000000   6.0000000   6.0000000   6.0000000   6.0000000   1.0000000   1.0000000   1.0000000   1.0000000

  Atom        11          12
 IAtWgt=          19          19
 AtmWgt=  18.9984032  18.9984032
 NucSpn=           1           1
 AtZEff=  -0.0000000  -0.0000000
 NQMom=    0.0000000   0.0000000
 NMagM=    2.6288670   2.6288670
 AtZNuc=   9.0000000   9.0000000
 Leave Link  101 at Wed Jan 29 15:48:46 2025, MaxMem=   104857600 cpu:               0.0 elap:               0.0
 (Enter /sw/cluster/pub/apps//g16/l103.exe)

 GradGradGradGradGradGradGradGradGradGradGradGradGradGradGradGradGradGrad
 Berny optimization.
 Initialization pass.
                           ----------------------------
                           !    Initial Parameters    !
                           ! (Angstroms and Degrees)  !
 --------------------------                            --------------------------
 ! Name  Definition              Value          Derivative Info.                !
 --------------------------------------------------------------------------------
 ! R1    R(1,2)                  1.3901         estimate D2E/DX2                !
 ! R2    R(1,6)                  1.3901         estimate D2E/DX2                !
 ! R3    R(1,7)                  1.0845         estimate D2E/DX2                !
 ! R4    R(2,3)                  1.3837         estimate D2E/DX2                !
 ! R5    R(2,8)                  1.083          estimate D2E/DX2                !
 ! R6    R(3,4)                  1.3838         estimate D2E/DX2                !
 ! R7    R(3,11)                 1.3409         estimate D2E/DX2                !
 ! R8    R(4,5)                  1.3839         estimate D2E/DX2                !
 ! R9    R(4,9)                  1.0826         estimate D2E/DX2                !
 ! R10   R(5,6)                  1.3837         estimate D2E/DX2                !
 ! R11   R(5,12)                 1.3409         estimate D2E/DX2                !
 ! R12   R(6,10)                 1.083          estimate D2E/DX2                !
 ! A1    A(2,1,6)              121.1404         estimate D2E/DX2                !
 ! A2    A(2,1,7)              119.4276         estimate D2E/DX2                !
 ! A3    A(6,1,7)              119.432          estimate D2E/DX2                !
 ! A4    A(1,2,3)              118.1646         estimate D2E/DX2                !
 ! A5    A(1,2,8)              121.9751         estimate D2E/DX2                !
 ! A6    A(3,2,8)              119.8602         estimate D2E/DX2                !
 ! A7    A(2,3,4)              122.7539         estimate D2E/DX2                !
 ! A8    A(2,3,11)             119.0056         estimate D2E/DX2                !
 ! A9    A(4,3,11)             118.2406         estimate D2E/DX2                !
 ! A10   A(3,4,5)              117.0231         estimate D2E/DX2                !
 ! A11   A(3,4,9)              121.4945         estimate D2E/DX2                !
 ! A12   A(5,4,9)              121.4824         estimate D2E/DX2                !
 ! A13   A(4,5,6)              122.7609         estimate D2E/DX2                !
 ! A14   A(4,5,12)             118.2291         estimate D2E/DX2                !
 ! A15   A(6,5,12)             119.01           estimate D2E/DX2                !
 ! A16   A(1,6,5)              118.1571         estimate D2E/DX2                !
 ! A17   A(1,6,10)             121.9741         estimate D2E/DX2                !
 ! A18   A(5,6,10)             119.8688         estimate D2E/DX2                !
 ! D1    D(6,1,2,3)              0.0            estimate D2E/DX2                !
 ! D2    D(6,1,2,8)            180.0            estimate D2E/DX2                !
 ! D3    D(7,1,2,3)            180.0            estimate D2E/DX2                !
 ! D4    D(7,1,2,8)              0.0            estimate D2E/DX2                !
 ! D5    D(2,1,6,5)              0.0            estimate D2E/DX2                !
 ! D6    D(2,1,6,10)           180.0            estimate D2E/DX2                !
 ! D7    D(7,1,6,5)            180.0            estimate D2E/DX2                !
 ! D8    D(7,1,6,10)             0.0            estimate D2E/DX2                !
 ! D9    D(1,2,3,4)              0.0            estimate D2E/DX2                !
 ! D10   D(1,2,3,11)           180.0            estimate D2E/DX2                !
 ! D11   D(8,2,3,4)            180.0            estimate D2E/DX2                !
 ! D12   D(8,2,3,11)             0.0            estimate D2E/DX2                !
 ! D13   D(2,3,4,5)              0.0            estimate D2E/DX2                !
 ! D14   D(2,3,4,9)            180.0            estimate D2E/DX2                !
 ! D15   D(11,3,4,5)           180.0            estimate D2E/DX2                !
 ! D16   D(11,3,4,9)             0.0            estimate D2E/DX2                !
 ! D17   D(3,4,5,6)              0.0            estimate D2E/DX2                !
 ! D18   D(3,4,5,12)           180.0            estimate D2E/DX2                !
 ! D19   D(9,4,5,6)            180.0            estimate D2E/DX2                !
 ! D20   D(9,4,5,12)             0.0            estimate D2E/DX2                !
 ! D21   D(4,5,6,1)              0.0            estimate D2E/DX2                !
 ! D22   D(4,5,6,10)           180.0            estimate D2E/DX2                !
 ! D23   D(12,5,6,1)           180.0            estimate D2E/DX2                !
 ! D24   D(12,5,6,10)            0.0            estimate D2E/DX2                !
 --------------------------------------------------------------------------------
 Trust Radius=3.00D-01 FncErr=1.00D-07 GrdErr=1.00D-06 EigMax=2.50D+02 EigMin=1.00D-04
 Number of steps in this run=     64 maximum allowed number of steps=    100.
 GradGradGradGradGradGradGradGradGradGradGradGradGradGradGradGradGradGrad

 Leave Link  103 at Wed Jan 29 15:48:46 2025, MaxMem=   104857600 cpu:               0.0 elap:               0.0
 (Enter /sw/cluster/pub/apps//g16/l202.exe)
                          Input orientation:                          
 ---------------------------------------------------------------------
 Center     Atomic      Atomic             Coordinates (Angstroms)
 Number     Number       Type             X           Y           Z
 ---------------------------------------------------------------------
      1          6           0        1.197458    0.691394   -0.000000
      2          6           0        1.211262   -0.698622    0.000000
      3          6           0       -0.002068   -1.363826    0.000000
      4          6           0       -1.218033   -0.703267    0.000000
      5          6           0       -1.182063    0.680119    0.000000
      6          6           0        0.000622    1.398397    0.000000
      7          1           0        2.136679    1.233579   -0.000000
      8          1           0        2.135615   -1.262987    0.000000
      9          1           0       -2.155618   -1.244429   -0.000000
     10          1           0       -0.025888    2.481081    0.000000
     11          9           0       -0.008433   -2.704712    0.000000
     12          9           0       -2.346599    1.344857   -0.000000
 ---------------------------------------------------------------------
                    Distance matrix (angstroms):
                    1          2          3          4          5
     1  C    0.000000
     2  C    1.390085   0.000000
     3  C    2.379662   1.383714   0.000000
     4  C    2.789207   2.429299   1.383802   0.000000
     5  C    2.379548   2.762052   2.360106   1.383854   0.000000
     6  C    1.390061   2.421392   2.762224   2.429425   1.383715
     7  H    1.084482   2.142382   3.364632   3.873688   3.364576
     8  H    2.167890   1.083023   2.140061   3.400036   3.844822
     9  H    3.871761   3.410833   2.156857   1.082554   2.156779
    10  H    2.167846   3.411899   3.844981   3.400188   2.140141
    11  F    3.603847   2.347776   1.340901   2.338571   3.582526
    12  F    3.603797   4.102948   3.582428   2.338477   1.340902
                    6          7          8          9         10
     6  C    0.000000
     7  H    2.142407   0.000000
     8  H    3.411915   2.496566   0.000000
     9  H    3.410850   4.956242   4.291274   0.000000
    10  H    1.083009   2.496590   4.323210   4.291290   0.000000
    11  F    4.103119   4.484600   2.583702   2.596696   5.185822
    12  F    2.347831   4.484659   5.185663   2.596320   2.583931
                   11         12
    11  F    0.000000
    12  F    4.676113   0.000000
 Symmetry turned off by external request.
 Stoichiometry    C6H4F2(1+,2)
 Framework group  CS[SG(C6H4F2)]
 Deg. of freedom    21
 Full point group                 CS      NOp   2
 Rotational constants (GHZ):           3.7687127           1.7687449           1.2037819
 Leave Link  202 at Wed Jan 29 15:48:46 2025, MaxMem=   104857600 cpu:               0.0 elap:               0.0
 (Enter /sw/cluster/pub/apps//g16/l301.exe)
 Standard basis: 6-311++G(d,p) (5D, 7F)
 Ernie: Thresh=  0.10000D-02 Tol=  0.10000D-05 Strict=F.
   204 basis functions,   324 primitive gaussians,   212 cartesian basis functions
    29 alpha electrons       28 beta electrons
       nuclear repulsion energy       343.5582985214 Hartrees.
 IExCor= 1009 DFT=T Ex+Corr=PBE1PBE ExCW=0 ScaHFX=  0.250000
 ScaDFX=  0.750000  0.750000  1.000000  1.000000 ScalE2=  1.000000  1.000000
 IRadAn=      5 IRanWt=     -1 IRanGd=            0 ICorTp=0 IEmpDi=  4
 NAtoms=   12 NActive=   12 NUniq=   12 SFac= 1.00D+00 NAtFMM=   60 NAOKFM=F Big=F
 Integral buffers will be    131072 words long.
 Raffenetti 2 integral format.
 Two-electron integral symmetry is turned off.
 Leave Link  301 at Wed Jan 29 15:48:46 2025, MaxMem=   104857600 cpu:               0.0 elap:               0.0
 (Enter /sw/cluster/pub/apps//g16/l302.exe)
 NPDir=0 NMtPBC=     1 NCelOv=     1 NCel=       1 NClECP=     1 NCelD=      1
         NCelK=      1 NCelE2=     1 NClLst=     1 CellRange=     0.0.
 One-electron integrals computed using PRISM.
 NBasis=   204 RedAO= T EigKep=  2.14D-06  NBF=   204
 NBsUse=   204 1.00D-06 EigRej= -1.00D+00 NBFU=   204
 Precomputing XC quadrature grid using
 IXCGrd= 4 IRadAn=           5 IRanWt=          -1 IRanGd=           0 AccXCQ= 0.00D+00.
 Generated NRdTot=       0 NPtTot=           0 NUsed=           0 NTot=          32
 NSgBfM=   212   212   212   212   212 MxSgAt=    12 MxSgA2=    12.
 Leave Link  302 at Wed Jan 29 15:48:46 2025, MaxMem=   104857600 cpu:               0.1 elap:               0.1
 (Enter /sw/cluster/pub/apps//g16/l303.exe)
 DipDrv:  MaxL=1.
 Leave Link  303 at Wed Jan 29 15:48:46 2025, MaxMem=   104857600 cpu:               0.0 elap:               0.0
 (Enter /sw/cluster/pub/apps//g16/l401.exe)
 ExpMin= 3.60D-02 ExpMax= 1.14D+04 ExpMxC= 1.72D+03 IAcc=3 IRadAn=         5 AccDes= 0.00D+00
 Harris functional with IExCor= 1009 and IRadAn=       5 diagonalized for initial guess.
 HarFok:  IExCor= 1009 AccDes= 0.00D+00 IRadAn=         5 IDoV= 1 UseB2=F ITyADJ=14
 ICtDFT=  3500011 ScaDFX=  1.000000  1.000000  1.000000  1.000000
 FoFCou: FMM=F IPFlag=           0 FMFlag=      100000 FMFlg1=           0
         NFxFlg=           0 DoJE=T BraDBF=F KetDBF=T FulRan=T
         wScrn=  0.000000 ICntrl=       500 IOpCl=  0 I1Cent=   200000004 NGrid=           0
         NMat0=    1 NMatS0=      1 NMatT0=    0 NMatD0=    1 NMtDS0=    0 NMtDT0=    0
 Symmetry not used in FoFCou.
 Harris En= -430.125266340732    
 JPrj=0 DoOrth=F DoCkMO=F.
 Initial guess <Sx>= 0.0000 <Sy>= 0.0000 <Sz>= 0.5000 <S**2>= 0.7500 S= 0.5000
 Leave Link  401 at Wed Jan 29 15:48:47 2025, MaxMem=   104857600 cpu:               1.2 elap:               1.2
 (Enter /sw/cluster/pub/apps//g16/l502.exe)
 Two-electron integral symmetry not used.
 UHF open shell SCF:
 Using DIIS extrapolation, IDIIS=  1040.
 NGot=   104857600 LenX=   104764860 LenY=   104719475
 Requested convergence on RMS density matrix=1.00D-08 within 128 cycles.
 Requested convergence on MAX density matrix=1.00D-06.
 Requested convergence on             energy=1.00D-06.
 No special actions if energy rises.
 Fock matrices will be formed incrementally for  20 cycles.

 Cycle   1  Pass 1  IDiag  1:
 FoFJK:  IHMeth= 1 ICntrl=       0 DoSepK=F KAlg= 0 I1Cent=           0 FoldK=F
 IRaf= 970000000 NMat=       1 IRICut=       1 DoRegI=T DoRafI=F ISym2E= 0 IDoP0=0 IntGTp=1.
 FoFCou: FMM=F IPFlag=           0 FMFlag=      100000 FMFlg1=           0
         NFxFlg=           0 DoJE=F BraDBF=F KetDBF=F FulRan=T
         wScrn=  0.000000 ICntrl=         0 IOpCl=  1 I1Cent=           0 NGrid=           0
         NMat0=    1 NMatS0=      1 NMatT0=    0 NMatD0=    1 NMtDS0=    0 NMtDT0=    0
 Symmetry not used in FoFCou.
 E= -429.942460416790    
 DIIS: error= 2.35D-02 at cycle   1 NSaved=   1.
 NSaved= 1 IEnMin= 1 EnMin= -429.942460416790     IErMin= 1 ErrMin= 2.35D-02
 ErrMax= 2.35D-02  0.00D+00 EMaxC= 1.00D-01 BMatC= 4.63D-01 BMatP= 4.63D-01
 IDIUse=3 WtCom= 7.65D-01 WtEn= 2.35D-01
 Coeff-Com:  0.100D+01
 Coeff-En:   0.100D+01
 Coeff:      0.100D+01
 Gap=     0.305 Goal=   None    Shift=    0.000
 Gap=     0.050 Goal=   None    Shift=    0.000
 GapD=    0.050 DampG=0.500 DampE=0.500 DampFc=0.2500 IDamp=-1.
 Damping current iteration by 2.50D-01
 RMSDP=6.72D-03 MaxDP=2.16D-01              OVMax= 1.73D-01

 Cycle   2  Pass 1  IDiag  1:
 RMSU=  1.26D-03    CP:  9.81D-01
 E= -429.973162592083     Delta-E=       -0.030702175293 Rises=F Damp=T
 DIIS: error= 1.30D-02 at cycle   2 NSaved=   2.
 NSaved= 2 IEnMin= 2 EnMin= -429.973162592083     IErMin= 2 ErrMin= 1.30D-02
 ErrMax= 1.30D-02  0.00D+00 EMaxC= 1.00D-01 BMatC= 1.57D-01 BMatP= 4.63D-01
 IDIUse=3 WtCom= 8.70D-01 WtEn= 1.30D-01
 Coeff-Com: -0.109D+01 0.209D+01
 Coeff-En:   0.000D+00 0.100D+01
 Coeff:     -0.949D+00 0.195D+01
 Gap=     0.259 Goal=   None    Shift=    0.000
 Gap=     0.089 Goal=   None    Shift=    0.000
 RMSDP=4.76D-03 MaxDP=1.64D-01 DE=-3.07D-02 OVMax= 1.01D-01

 Cycle   3  Pass 1  IDiag  1:
 RMSU=  2.36D-03    CP:  9.26D-01  3.00D+00
 E= -430.029233899306     Delta-E=       -0.056071307223 Rises=F Damp=F
 DIIS: error= 3.99D-03 at cycle   3 NSaved=   3.
 NSaved= 3 IEnMin= 3 EnMin= -430.029233899306     IErMin= 3 ErrMin= 3.99D-03
 ErrMax= 3.99D-03  0.00D+00 EMaxC= 1.00D-01 BMatC= 8.38D-03 BMatP= 1.57D-01
 IDIUse=3 WtCom= 9.60D-01 WtEn= 3.99D-02
 Coeff-Com: -0.356D+00 0.598D+00 0.757D+00
 Coeff-En:   0.000D+00 0.000D+00 0.100D+01
 Coeff:     -0.341D+00 0.574D+00 0.767D+00
 Gap=     0.251 Goal=   None    Shift=    0.000
 Gap=     0.077 Goal=   None    Shift=    0.000
 RMSDP=1.69D-03 MaxDP=1.05D-01 DE=-5.61D-02 OVMax= 2.25D-02

 Cycle   4  Pass 1  IDiag  1:
 RMSU=  7.00D-04    CP:  9.01D-01  3.00D+00  7.97D-01
 E= -430.030563818014     Delta-E=       -0.001329918709 Rises=F Damp=F
 DIIS: error= 2.64D-03 at cycle   4 NSaved=   4.
 NSaved= 4 IEnMin= 4 EnMin= -430.030563818014     IErMin= 4 ErrMin= 2.64D-03
 ErrMax= 2.64D-03  0.00D+00 EMaxC= 1.00D-01 BMatC= 3.10D-03 BMatP= 8.38D-03
 IDIUse=3 WtCom= 9.74D-01 WtEn= 2.64D-02
 Coeff-Com: -0.112D+00 0.169D+00 0.411D+00 0.532D+00
 Coeff-En:   0.000D+00 0.000D+00 0.143D+00 0.857D+00
 Coeff:     -0.109D+00 0.165D+00 0.404D+00 0.541D+00
 Gap=     0.251 Goal=   None    Shift=    0.000
 Gap=     0.080 Goal=   None    Shift=    0.000
 RMSDP=2.64D-04 MaxDP=9.81D-03 DE=-1.33D-03 OVMax= 8.63D-03

 Cycle   5  Pass 1  IDiag  1:
 RMSU=  1.82D-04    CP:  9.03D-01  3.00D+00  8.44D-01  8.42D-01
 E= -430.031077536847     Delta-E=       -0.000513718832 Rises=F Damp=F
 DIIS: error= 8.03D-04 at cycle   5 NSaved=   5.
 NSaved= 5 IEnMin= 5 EnMin= -430.031077536847     IErMin= 5 ErrMin= 8.03D-04
 ErrMax= 8.03D-04  0.00D+00 EMaxC= 1.00D-01 BMatC= 2.15D-04 BMatP= 3.10D-03
 IDIUse=3 WtCom= 9.92D-01 WtEn= 8.03D-03
 Coeff-Com: -0.101D-01 0.102D-01 0.915D-01 0.239D+00 0.669D+00
 Coeff-En:   0.000D+00 0.000D+00 0.000D+00 0.000D+00 0.100D+01
 Coeff:     -0.997D-02 0.101D-01 0.908D-01 0.237D+00 0.672D+00
 Gap=     0.251 Goal=   None    Shift=    0.000
 Gap=     0.082 Goal=   None    Shift=    0.000
 RMSDP=2.00D-04 MaxDP=1.38D-02 DE=-5.14D-04 OVMax= 4.91D-03

 Cycle   6  Pass 1  IDiag  1:
 RMSU=  8.08D-05    CP:  9.00D-01  3.00D+00  8.30D-01  9.55D-01  1.13D+00
 E= -430.031135669106     Delta-E=       -0.000058132260 Rises=F Damp=F
 DIIS: error= 4.23D-04 at cycle   6 NSaved=   6.
 NSaved= 6 IEnMin= 6 EnMin= -430.031135669106     IErMin= 6 ErrMin= 4.23D-04
 ErrMax= 4.23D-04  0.00D+00 EMaxC= 1.00D-01 BMatC= 5.36D-05 BMatP= 2.15D-04
 IDIUse=3 WtCom= 9.96D-01 WtEn= 4.23D-03
 Coeff-Com:  0.146D-01-0.246D-01-0.315D-01 0.225D-02 0.336D+00 0.703D+00
 Coeff-En:   0.000D+00 0.000D+00 0.000D+00 0.000D+00 0.000D+00 0.100D+01
 Coeff:      0.145D-01-0.245D-01-0.313D-01 0.224D-02 0.335D+00 0.704D+00
 Gap=     0.250 Goal=   None    Shift=    0.000
 Gap=     0.082 Goal=   None    Shift=    0.000
 RMSDP=1.18D-04 MaxDP=7.42D-03 DE=-5.81D-05 OVMax= 2.56D-03

 Cycle   7  Pass 1  IDiag  1:
 RMSU=  6.69D-05    CP:  9.01D-01  3.00D+00  8.47D-01  9.21D-01  1.20D+00
                    CP:  8.20D-01
 E= -430.031156698625     Delta-E=       -0.000021029519 Rises=F Damp=F
 DIIS: error= 2.27D-04 at cycle   7 NSaved=   7.
 NSaved= 7 IEnMin= 7 EnMin= -430.031156698625     IErMin= 7 ErrMin= 2.27D-04
 ErrMax= 2.27D-04  0.00D+00 EMaxC= 1.00D-01 BMatC= 8.00D-06 BMatP= 5.36D-05
 IDIUse=3 WtCom= 9.98D-01 WtEn= 2.27D-03
 Coeff-Com:  0.781D-02-0.110D-01-0.431D-01-0.809D-01-0.892D-01 0.246D+00
 Coeff-Com:  0.970D+00
 Coeff-En:   0.000D+00 0.000D+00 0.000D+00 0.000D+00 0.000D+00 0.000D+00
 Coeff-En:   0.100D+01
 Coeff:      0.780D-02-0.110D-01-0.430D-01-0.807D-01-0.890D-01 0.246D+00
 Coeff:      0.970D+00
 Gap=     0.249 Goal=   None    Shift=    0.000
 Gap=     0.083 Goal=   None    Shift=    0.000
 RMSDP=3.97D-05 MaxDP=1.72D-03 DE=-2.10D-05 OVMax= 2.17D-03

 Cycle   8  Pass 1  IDiag  1:
 RMSU=  1.90D-05    CP:  9.01D-01  3.00D+00  8.51D-01  9.41D-01  1.30D+00
                    CP:  9.20D-01  1.35D+00
 E= -430.031162366727     Delta-E=       -0.000005668101 Rises=F Damp=F
 DIIS: error= 1.43D-04 at cycle   8 NSaved=   8.
 NSaved= 8 IEnMin= 8 EnMin= -430.031162366727     IErMin= 8 ErrMin= 1.43D-04
 ErrMax= 1.43D-04  0.00D+00 EMaxC= 1.00D-01 BMatC= 2.26D-06 BMatP= 8.00D-06
 IDIUse=3 WtCom= 9.99D-01 WtEn= 1.43D-03
 Coeff-Com:  0.217D-02-0.271D-02-0.195D-01-0.433D-01-0.956D-01 0.514D-01
 Coeff-Com:  0.499D+00 0.608D+00
 Coeff-En:   0.000D+00 0.000D+00 0.000D+00 0.000D+00 0.000D+00 0.000D+00
 Coeff-En:   0.000D+00 0.100D+01
 Coeff:      0.217D-02-0.271D-02-0.195D-01-0.433D-01-0.954D-01 0.513D-01
 Coeff:      0.498D+00 0.609D+00
 Gap=     0.249 Goal=   None    Shift=    0.000
 Gap=     0.083 Goal=   None    Shift=    0.000
 RMSDP=1.74D-05 MaxDP=1.03D-03 DE=-5.67D-06 OVMax= 8.66D-04

 Cycle   9  Pass 1  IDiag  1:
 RMSU=  7.32D-06    CP:  9.01D-01  3.00D+00  8.48D-01  9.47D-01  1.35D+00
                    CP:  1.00D+00  1.39D+00  9.10D-01
 E= -430.031163184750     Delta-E=       -0.000000818023 Rises=F Damp=F
 DIIS: error= 4.47D-05 at cycle   9 NSaved=   9.
 NSaved= 9 IEnMin= 9 EnMin= -430.031163184750     IErMin= 9 ErrMin= 4.47D-05
 ErrMax= 4.47D-05  0.00D+00 EMaxC= 1.00D-01 BMatC= 2.46D-07 BMatP= 2.26D-06
 IDIUse=1 WtCom= 1.00D+00 WtEn= 0.00D+00
 Coeff-Com: -0.652D-03 0.106D-02-0.840D-03-0.338D-02-0.206D-01-0.249D-02
 Coeff-Com:  0.183D-01 0.212D+00 0.797D+00
 Coeff:     -0.652D-03 0.106D-02-0.840D-03-0.338D-02-0.206D-01-0.249D-02
 Coeff:      0.183D-01 0.212D+00 0.797D+00
 Gap=     0.249 Goal=   None    Shift=    0.000
 Gap=     0.083 Goal=   None    Shift=    0.000
 RMSDP=5.13D-06 MaxDP=2.58D-04 DE=-8.18D-07 OVMax= 3.39D-04

 Cycle  10  Pass 1  IDiag  1:
 RMSU=  3.38D-06    CP:  9.01D-01  3.00D+00  8.48D-01  9.49D-01  1.35D+00
                    CP:  1.01D+00  1.42D+00  1.01D+00  7.52D-01
 E= -430.031163305475     Delta-E=       -0.000000120725 Rises=F Damp=F
 DIIS: error= 2.35D-05 at cycle  10 NSaved=  10.
 NSaved=10 IEnMin=10 EnMin= -430.031163305475     IErMin=10 ErrMin= 2.35D-05
 ErrMax= 2.35D-05  0.00D+00 EMaxC= 1.00D-01 BMatC= 7.74D-08 BMatP= 2.46D-07
 IDIUse=1 WtCom= 1.00D+00 WtEn= 0.00D+00
 Coeff-Com: -0.822D-03 0.114D-02 0.376D-02 0.770D-02 0.113D-01-0.101D-01
 Coeff-Com: -0.109D+00-0.296D-01 0.406D+00 0.720D+00
 Coeff:     -0.822D-03 0.114D-02 0.376D-02 0.770D-02 0.113D-01-0.101D-01
 Coeff:     -0.109D+00-0.296D-01 0.406D+00 0.720D+00
 Gap=     0.249 Goal=   None    Shift=    0.000
 Gap=     0.083 Goal=   None    Shift=    0.000
 RMSDP=4.03D-06 MaxDP=2.19D-04 DE=-1.21D-07 OVMax= 2.24D-04

 Cycle  11  Pass 1  IDiag  1:
 RMSU=  1.75D-06    CP:  9.01D-01  3.00D+00  8.48D-01  9.49D-01  1.35D+00
                    CP:  1.02D+00  1.45D+00  1.04D+00  9.74D-01  1.21D+00
 E= -430.031163354988     Delta-E=       -0.000000049513 Rises=F Damp=F
 DIIS: error= 8.85D-06 at cycle  11 NSaved=  11.
 NSaved=11 IEnMin=11 EnMin= -430.031163354988     IErMin=11 ErrMin= 8.85D-06
 ErrMax= 8.85D-06  0.00D+00 EMaxC= 1.00D-01 BMatC= 1.03D-08 BMatP= 7.74D-08
 IDIUse=1 WtCom= 1.00D+00 WtEn= 0.00D+00
 Coeff-Com:  0.103D-04-0.564D-04 0.623D-03 0.162D-02 0.665D-02-0.613D-03
 Coeff-Com: -0.176D-01-0.454D-01-0.148D+00-0.452D-02 0.121D+01
 Coeff:      0.103D-04-0.564D-04 0.623D-03 0.162D-02 0.665D-02-0.613D-03
 Coeff:     -0.176D-01-0.454D-01-0.148D+00-0.452D-02 0.121D+01
 Gap=     0.249 Goal=   None    Shift=    0.000
 Gap=     0.083 Goal=   None    Shift=    0.000
 RMSDP=2.52D-06 MaxDP=1.48D-04 DE=-4.95D-08 OVMax= 1.54D-04

 Cycle  12  Pass 1  IDiag  1:
 RMSU=  1.02D-06    CP:  9.01D-01  3.00D+00  8.48D-01  9.50D-01  1.36D+00
                    CP:  1.03D+00  1.46D+00  1.07D+00  1.08D+00  1.55D+00
                    CP:  1.39D+00
 E= -430.031163372558     Delta-E=       -0.000000017570 Rises=F Damp=F
 DIIS: error= 4.01D-06 at cycle  12 NSaved=  12.
 NSaved=12 IEnMin=12 EnMin= -430.031163372558     IErMin=12 ErrMin= 4.01D-06
 ErrMax= 4.01D-06  0.00D+00 EMaxC= 1.00D-01 BMatC= 5.98D-09 BMatP= 1.03D-08
 IDIUse=1 WtCom= 1.00D+00 WtEn= 0.00D+00
 Coeff-Com:  0.142D-03-0.219D-03-0.410D-03-0.647D-03 0.135D-02 0.135D-02
 Coeff-Com:  0.116D-01-0.174D-01-0.151D+00-0.167D+00 0.656D+00 0.667D+00
 Coeff:      0.142D-03-0.219D-03-0.410D-03-0.647D-03 0.135D-02 0.135D-02
 Coeff:      0.116D-01-0.174D-01-0.151D+00-0.167D+00 0.656D+00 0.667D+00
 Gap=     0.249 Goal=   None    Shift=    0.000
 Gap=     0.083 Goal=   None    Shift=    0.000
 RMSDP=1.15D-06 MaxDP=5.67D-05 DE=-1.76D-08 OVMax= 6.45D-05

 Cycle  13  Pass 1  IDiag  1:
 RMSU=  4.54D-07    CP:  9.01D-01  3.00D+00  8.48D-01  9.50D-01  1.36D+00
                    CP:  1.03D+00  1.47D+00  1.08D+00  1.11D+00  1.69D+00
                    CP:  1.69D+00  1.16D+00
 E= -430.031163376051     Delta-E=       -0.000000003493 Rises=F Damp=F
 DIIS: error= 2.87D-06 at cycle  13 NSaved=  13.
 NSaved=13 IEnMin=13 EnMin= -430.031163376051     IErMin=13 ErrMin= 2.87D-06
 ErrMax= 2.87D-06  0.00D+00 EMaxC= 1.00D-01 BMatC= 2.93D-09 BMatP= 5.98D-09
 IDIUse=1 WtCom= 1.00D+00 WtEn= 0.00D+00
 Coeff-Com:  0.978D-04-0.134D-03-0.626D-03-0.128D-02-0.203D-02 0.132D-02
 Coeff-Com:  0.171D-01 0.710D-02-0.476D-01-0.136D+00-0.361D-01 0.519D+00
 Coeff-Com:  0.679D+00
 Coeff:      0.978D-04-0.134D-03-0.626D-03-0.128D-02-0.203D-02 0.132D-02
 Coeff:      0.171D-01 0.710D-02-0.476D-01-0.136D+00-0.361D-01 0.519D+00
 Coeff:      0.679D+00
 Gap=     0.249 Goal=   None    Shift=    0.000
 Gap=     0.083 Goal=   None    Shift=    0.000
 RMSDP=9.29D-07 MaxDP=3.86D-05 DE=-3.49D-09 OVMax= 4.58D-05

 Cycle  14  Pass 1  IDiag  1:
 RMSU=  2.29D-07    CP:  9.01D-01  3.00D+00  8.48D-01  9.50D-01  1.36D+00
                    CP:  1.03D+00  1.48D+00  1.09D+00  1.13D+00  1.79D+00
                    CP:  1.93D+00  1.42D+00  9.07D-01
 E= -430.031163377592     Delta-E=       -0.000000001541 Rises=F Damp=F
 DIIS: error= 4.98D-07 at cycle  14 NSaved=  14.
 NSaved=14 IEnMin=14 EnMin= -430.031163377592     IErMin=14 ErrMin= 4.98D-07
 ErrMax= 4.98D-07  0.00D+00 EMaxC= 1.00D-01 BMatC= 7.07D-11 BMatP= 2.93D-09
 IDIUse=1 WtCom= 1.00D+00 WtEn= 0.00D+00
 Coeff-Com: -0.189D-04 0.286D-04 0.292D-04 0.468D-04-0.328D-03 0.951D-04
 Coeff-Com: -0.154D-02 0.269D-02 0.213D-01 0.272D-01-0.101D+00-0.983D-01
 Coeff-Com:  0.143D-01 0.114D+01
 Coeff:     -0.189D-04 0.286D-04 0.292D-04 0.468D-04-0.328D-03 0.951D-04
 Coeff:     -0.154D-02 0.269D-02 0.213D-01 0.272D-01-0.101D+00-0.983D-01
 Coeff:      0.143D-01 0.114D+01
 Gap=     0.249 Goal=   None    Shift=    0.000
 Gap=     0.083 Goal=   None    Shift=    0.000
 RMSDP=3.27D-07 MaxDP=1.38D-05 DE=-1.54D-09 OVMax= 1.07D-05

 Cycle  15  Pass 1  IDiag  1:
 RMSU=  5.05D-08    CP:  9.01D-01  3.00D+00  8.48D-01  9.50D-01  1.36D+00
                    CP:  1.04D+00  1.48D+00  1.09D+00  1.14D+00  1.81D+00
                    CP:  1.99D+00  1.56D+00  1.08D+00  1.19D+00
 E= -430.031163377664     Delta-E=       -0.000000000073 Rises=F Damp=F
 DIIS: error= 8.50D-08 at cycle  15 NSaved=  15.
 NSaved=15 IEnMin=15 EnMin= -430.031163377664     IErMin=15 ErrMin= 8.50D-08
 ErrMax= 8.50D-08  0.00D+00 EMaxC= 1.00D-01 BMatC= 2.24D-12 BMatP= 7.07D-11
 IDIUse=1 WtCom= 1.00D+00 WtEn= 0.00D+00
 Coeff-Com: -0.401D-05 0.548D-05 0.274D-04 0.601D-04 0.124D-03-0.481D-04
 Coeff-Com: -0.846D-03-0.360D-03 0.894D-03 0.473D-02 0.103D-01-0.224D-01
 Coeff-Com: -0.404D-01-0.803D-01 0.113D+01
 Coeff:     -0.401D-05 0.548D-05 0.274D-04 0.601D-04 0.124D-03-0.481D-04
 Coeff:     -0.846D-03-0.360D-03 0.894D-03 0.473D-02 0.103D-01-0.224D-01
 Coeff:     -0.404D-01-0.803D-01 0.113D+01
 Gap=     0.249 Goal=   None    Shift=    0.000
 Gap=     0.083 Goal=   None    Shift=    0.000
 RMSDP=6.19D-08 MaxDP=2.85D-06 DE=-7.25D-11 OVMax= 1.31D-06

 Cycle  16  Pass 1  IDiag  1:
 RMSU=  1.03D-08    CP:  9.01D-01  3.00D+00  8.48D-01  9.50D-01  1.36D+00
                    CP:  1.04D+00  1.48D+00  1.09D+00  1.14D+00  1.82D+00
                    CP:  2.00D+00  1.58D+00  1.11D+00  1.27D+00  1.11D+00
 E= -430.031163377664     Delta-E=        0.000000000000 Rises=F Damp=F
 DIIS: error= 3.36D-08 at cycle  16 NSaved=  16.
 NSaved=16 IEnMin=15 EnMin= -430.031163377664     IErMin=16 ErrMin= 3.36D-08
 ErrMax= 3.36D-08  0.00D+00 EMaxC= 1.00D-01 BMatC= 3.82D-13 BMatP= 2.24D-12
 IDIUse=1 WtCom= 1.00D+00 WtEn= 0.00D+00
 Coeff-Com: -0.780D-06 0.979D-06 0.900D-05 0.193D-04 0.534D-04-0.195D-04
 Coeff-Com: -0.242D-03-0.215D-03-0.401D-03 0.664D-03 0.719D-02-0.432D-02
 Coeff-Com: -0.148D-01-0.706D-01 0.401D+00 0.681D+00
 Coeff:     -0.780D-06 0.979D-06 0.900D-05 0.193D-04 0.534D-04-0.195D-04
 Coeff:     -0.242D-03-0.215D-03-0.401D-03 0.664D-03 0.719D-02-0.432D-02
 Coeff:     -0.148D-01-0.706D-01 0.401D+00 0.681D+00
 Gap=     0.249 Goal=   None    Shift=    0.000
 Gap=     0.083 Goal=   None    Shift=    0.000
 RMSDP=5.91D-09 MaxDP=2.94D-07 DE= 4.55D-13 OVMax= 2.01D-07

 SCF Done:  E(UPBE1PBE) =  -430.031163378     A.U. after   16 cycles
            NFock= 16  Conv=0.59D-08     -V/T= 2.0030
 <Sx>= 0.0000 <Sy>= 0.0000 <Sz>= 0.5000 <S**2>= 0.7704 S= 0.5102
 <L.S>=  0.00000000000    
 KE= 4.287382012253D+02 PE=-1.686108638669D+03 EE= 4.837809755447D+02
 Annihilation of the first spin contaminant:
 S**2 before annihilation     0.7704,   after     0.7502
 Leave Link  502 at Wed Jan 29 15:49:46 2025, MaxMem=   104857600 cpu:              58.3 elap:              58.4
 (Enter /sw/cluster/pub/apps//g16/l601.exe)
 Copying SCF densities to generalized density rwf, IOpCl= 1 IROHF=0.

 **********************************************************************

            Population analysis using the SCF density.

 **********************************************************************

 Alpha  occ. eigenvalues --  -25.01577 -25.01573 -10.58011 -10.58007 -10.50070
 Alpha  occ. eigenvalues --  -10.50067 -10.47278 -10.46568  -1.49563  -1.49505
 Alpha  occ. eigenvalues --   -1.15697  -1.04317  -1.02841  -0.89735  -0.88616
 Alpha  occ. eigenvalues --   -0.81362  -0.77720  -0.75542  -0.75039  -0.73383
 Alpha  occ. eigenvalues --   -0.71606  -0.68419  -0.67371  -0.64907  -0.62256
 Alpha  occ. eigenvalues --   -0.62184  -0.60945  -0.52856  -0.50826
 Alpha virt. eigenvalues --   -0.25891  -0.24677  -0.14742  -0.13975  -0.10802
 Alpha virt. eigenvalues --   -0.10224  -0.10180  -0.09948  -0.08318  -0.07943
 Alpha virt. eigenvalues --   -0.06609  -0.04654  -0.04223  -0.04183  -0.02055
 Alpha virt. eigenvalues --   -0.01603  -0.01135  -0.00085  -0.00056   0.00687
 Alpha virt. eigenvalues --    0.00711   0.00774   0.00912   0.01529   0.01898
 Alpha virt. eigenvalues --    0.03559   0.05722   0.06328   0.06648   0.07820
 Alpha virt. eigenvalues --    0.07911   0.09624   0.10608   0.11755   0.13299
 Alpha virt. eigenvalues --    0.13806   0.14317   0.15689   0.17415   0.18721
 Alpha virt. eigenvalues --    0.19298   0.19996   0.21083   0.21690   0.24251
 Alpha virt. eigenvalues --    0.24281   0.27299   0.28676   0.29553   0.30335
 Alpha virt. eigenvalues --    0.31247   0.33852   0.35893   0.36894   0.37932
 Alpha virt. eigenvalues --    0.37947   0.38078   0.40851   0.40909   0.42008
 Alpha virt. eigenvalues --    0.42596   0.48423   0.48987   0.49266   0.55862
 Alpha virt. eigenvalues --    0.58449   0.59824   0.61269   0.62870   0.67384
 Alpha virt. eigenvalues --    0.68196   0.68669   0.71833   0.72510   0.73362
 Alpha virt. eigenvalues --    0.73792   0.74531   0.77195   0.82706   0.83670
 Alpha virt. eigenvalues --    0.84982   0.85498   0.91736   0.97280   1.06562
 Alpha virt. eigenvalues --    1.15079   1.22343   1.22679   1.25024   1.25174
 Alpha virt. eigenvalues --    1.25740   1.29631   1.33748   1.33846   1.34198
 Alpha virt. eigenvalues --    1.35239   1.35837   1.38452   1.38994   1.43943
 Alpha virt. eigenvalues --    1.44033   1.49862   1.53799   1.56402   1.66057
 Alpha virt. eigenvalues --    1.67331   1.67405   1.69586   1.73273   1.74395
 Alpha virt. eigenvalues --    1.76867   1.80017   1.80542   1.82360   1.85571
 Alpha virt. eigenvalues --    1.87551   1.89475   1.99974   2.03057   2.08401
 Alpha virt. eigenvalues --    2.16321   2.23830   2.26881   2.27655   2.40529
 Alpha virt. eigenvalues --    2.42292   2.50839   2.51063   2.51472   2.53322
 Alpha virt. eigenvalues --    2.54733   2.56600   2.56901   2.61462   2.63018
 Alpha virt. eigenvalues --    2.66919   2.66948   2.84683   2.92119   2.93839
 Alpha virt. eigenvalues --    2.98299   3.12589   3.15402   3.28070   3.41439
 Alpha virt. eigenvalues --    3.41941   3.54421   3.57907   3.57953   3.64255
 Alpha virt. eigenvalues --    3.65257   3.78291   3.78592   3.81252   3.91722
 Alpha virt. eigenvalues --    3.92373   3.93269   3.95968   4.60515   4.67524
 Alpha virt. eigenvalues --    4.68665   6.13397   6.14996   6.27572   6.27710
 Alpha virt. eigenvalues --    6.55110   6.61704  23.38819  23.73456  23.81704
 Alpha virt. eigenvalues --   23.92549  23.96459  24.05215  66.72501  66.73019
  Beta  occ. eigenvalues --  -25.01312 -25.01309 -10.57689 -10.57685 -10.49490
  Beta  occ. eigenvalues --  -10.49487 -10.47521 -10.46697  -1.48989  -1.48930
  Beta  occ. eigenvalues --   -1.14561  -1.02633  -1.02197  -0.89256  -0.87861
  Beta  occ. eigenvalues --   -0.81114  -0.77391  -0.75133  -0.74502  -0.71245
  Beta  occ. eigenvalues --   -0.69517  -0.68357  -0.67204  -0.64582  -0.61958
  Beta  occ. eigenvalues --   -0.60623  -0.58948  -0.50329
  Beta virt. eigenvalues --   -0.42012  -0.23303  -0.21757  -0.14413  -0.13753
  Beta virt. eigenvalues --   -0.10622  -0.10220  -0.09949  -0.09176  -0.08126
  Beta virt. eigenvalues --   -0.06419  -0.06254  -0.04180  -0.04095  -0.03950
  Beta virt. eigenvalues --   -0.02023  -0.01278  -0.00905  -0.00025   0.00181
  Beta virt. eigenvalues --    0.00733   0.00905   0.00950   0.01520   0.01562
  Beta virt. eigenvalues --    0.01997   0.03661   0.05976   0.06766   0.06811
  Beta virt. eigenvalues --    0.08007   0.08016   0.09863   0.10963   0.11872
  Beta virt. eigenvalues --    0.13573   0.14098   0.14569   0.15740   0.17799
  Beta virt. eigenvalues --    0.18974   0.19356   0.20104   0.21193   0.21890
  Beta virt. eigenvalues --    0.24399   0.24449   0.27441   0.28803   0.29703
  Beta virt. eigenvalues --    0.30745   0.32386   0.34336   0.35764   0.38139
  Beta virt. eigenvalues --    0.38403   0.38644   0.38955   0.41131   0.41298
  Beta virt. eigenvalues --    0.42804   0.43481   0.49262   0.49375   0.49653
  Beta virt. eigenvalues --    0.56012   0.58609   0.60121   0.62098   0.63109
  Beta virt. eigenvalues --    0.67605   0.68528   0.68861   0.72172   0.72995
  Beta virt. eigenvalues --    0.74133   0.74821   0.75373   0.78004   0.83110
  Beta virt. eigenvalues --    0.84055   0.86051   0.86588   0.93141   0.98309
  Beta virt. eigenvalues --    1.07308   1.15849   1.22907   1.22995   1.25174
  Beta virt. eigenvalues --    1.25346   1.26409   1.29827   1.34372   1.34640
  Beta virt. eigenvalues --    1.34752   1.35388   1.36121   1.39390   1.39518
  Beta virt. eigenvalues --    1.43960   1.44921   1.50700   1.54075   1.56857
  Beta virt. eigenvalues --    1.67771   1.67957   1.68102   1.69535   1.74869
  Beta virt. eigenvalues --    1.74873   1.77049   1.80047   1.81223   1.83734
  Beta virt. eigenvalues --    1.85742   1.87921   1.89797   2.00931   2.03375
  Beta virt. eigenvalues --    2.09698   2.16839   2.23860   2.27048   2.27801
  Beta virt. eigenvalues --    2.42198   2.42791   2.51174   2.51520   2.53087
  Beta virt. eigenvalues --    2.53519   2.54726   2.56972   2.57137   2.61634
  Beta virt. eigenvalues --    2.66020   2.66992   2.67158   2.86173   2.92485
  Beta virt. eigenvalues --    2.94102   2.98583   3.13108   3.15606   3.28352
  Beta virt. eigenvalues --    3.41751   3.42575   3.54823   3.58654   3.58692
  Beta virt. eigenvalues --    3.65013   3.66097   3.79094   3.79390   3.81705
  Beta virt. eigenvalues --    3.92159   3.92691   3.93792   3.96274   4.61477
  Beta virt. eigenvalues --    4.67860   4.68986   6.14440   6.16035   6.27761
  Beta virt. eigenvalues --    6.27896   6.55343   6.61923  23.39097  23.73862
  Beta virt. eigenvalues --   23.81833  23.93100  23.96478  24.05403  66.72725
  Beta virt. eigenvalues --   66.73243
          Condensed to atoms (all electrons):
               1          2          3          4          5          6
     1  C    8.068276  -2.657579   2.016793  -0.831836   2.017187  -2.657794
     2  C   -2.657579  10.020836  -2.631517  -0.190025  -1.981709   3.053496
     3  C    2.016793  -2.631517   9.205512  -2.697423   2.270193  -1.981569
     4  C   -0.831836  -0.190025  -2.697423  11.889808  -2.696324  -0.189917
     5  C    2.017187  -1.981709   2.270193  -2.696324   9.205521  -2.633144
     6  C   -2.657794   3.053496  -1.981569  -0.189917  -2.633144  10.022504
     7  H    0.486179  -0.182453   0.065207   0.057271   0.065240  -0.182446
     8  H   -0.076163   0.557717  -0.164021  -0.076090  -0.012977   0.080489
     9  H    0.024153  -0.061025  -0.122834   0.636666  -0.122817  -0.061030
    10  H   -0.076170   0.080507  -0.012970  -0.076083  -0.164075   0.557759
    11  F    0.039889  -0.297832   0.621417  -0.252977   0.015159  -0.021891
    12  F    0.039904  -0.021903   0.015165  -0.253010   0.621452  -0.297807
               7          8          9         10         11         12
     1  C    0.486179  -0.076163   0.024153  -0.076170   0.039889   0.039904
     2  C   -0.182453   0.557717  -0.061025   0.080507  -0.297832  -0.021903
     3  C    0.065207  -0.164021  -0.122834  -0.012970   0.621417   0.015165
     4  C    0.057271  -0.076090   0.636666  -0.076083  -0.252977  -0.253010
     5  C    0.065240  -0.012977  -0.122817  -0.164075   0.015159   0.621452
     6  C   -0.182446   0.080489  -0.061030   0.557759  -0.021891  -0.297807
     7  H    0.392957  -0.009177   0.001957  -0.009178   0.002154   0.002154
     8  H   -0.009177   0.387577  -0.001979   0.002801  -0.023321  -0.000164
     9  H    0.001957  -0.001979   0.398740  -0.001979  -0.017763  -0.017767
    10  H   -0.009178   0.002801  -0.001979   0.387580  -0.000164  -0.023321
    11  F    0.002154  -0.023321  -0.017763  -0.000164   8.969559   0.000153
    12  F    0.002154  -0.000164  -0.017767  -0.023321   0.000153   8.969454
          Atomic-Atomic Spin Densities.
               1          2          3          4          5          6
     1  C   -0.129984  -0.034742   0.041975  -0.089017   0.041942  -0.034818
     2  C   -0.034742   0.430416   0.000360   0.056760  -0.056634   0.016950
     3  C    0.041975   0.000360   0.262934  -0.027297   0.036351  -0.056624
     4  C   -0.089017   0.056760  -0.027297  -0.110604  -0.027211   0.056765
     5  C    0.041942  -0.056634   0.036351  -0.027211   0.263383   0.000454
     6  C   -0.034818   0.016950  -0.056624   0.056765   0.000454   0.429819
     7  H    0.000953   0.000533   0.002696  -0.006648   0.002692   0.000534
     8  H    0.003908  -0.009404   0.003504   0.005579  -0.001256  -0.001889
     9  H   -0.003260   0.002363   0.003246  -0.007574   0.003246   0.002363
    10  H    0.003916  -0.001895  -0.001254   0.005574   0.003515  -0.009410
    11  F   -0.001443  -0.001446  -0.038742   0.005253  -0.001963   0.001233
    12  F   -0.001453   0.001242  -0.001974   0.005258  -0.038829  -0.001430
               7          8          9         10         11         12
     1  C    0.000953   0.003908  -0.003260   0.003916  -0.001443  -0.001453
     2  C    0.000533  -0.009404   0.002363  -0.001895  -0.001446   0.001242
     3  C    0.002696   0.003504   0.003246  -0.001254  -0.038742  -0.001974
     4  C   -0.006648   0.005579  -0.007574   0.005574   0.005253   0.005258
     5  C    0.002692  -0.001256   0.003246   0.003515  -0.001963  -0.038829
     6  C    0.000534  -0.001889   0.002363  -0.009410   0.001233  -0.001430
     7  H    0.003429   0.001146  -0.000164   0.001147   0.000064   0.000064
     8  H    0.001146  -0.025200   0.000177  -0.000268   0.000144   0.000013
     9  H   -0.000164   0.000177   0.001405   0.000177  -0.000078  -0.000078
    10  H    0.001147  -0.000268   0.000177  -0.025173   0.000013   0.000143
    11  F    0.000064   0.000144  -0.000078   0.000013   0.094259  -0.000001
    12  F    0.000064   0.000013  -0.000078   0.000143  -0.000001   0.094416
 Mulliken charges and spin densities:
               1          2
     1  C   -0.392839  -0.202023
     2  C    0.311488   0.404502
     3  C   -0.583952   0.225176
     4  C    0.679940  -0.133162
     5  C   -0.583706   0.225690
     6  C    0.311350   0.403947
     7  H    0.310136   0.006446
     8  H    0.335309  -0.023547
     9  H    0.345678   0.001823
    10  H    0.335292  -0.023516
    11  F   -0.034384   0.057292
    12  F   -0.034311   0.057371
 Sum of Mulliken charges =   1.00000   1.00000
 Mulliken charges and spin densities with hydrogens summed into heavy atoms:
               1          2
     1  C   -0.082703  -0.195577
     2  C    0.646796   0.380955
     3  C   -0.583952   0.225176
     4  C    1.025618  -0.131339
     5  C   -0.583706   0.225690
     6  C    0.646642   0.380431
    11  F   -0.034384   0.057292
    12  F   -0.034311   0.057371
 Electronic spatial extent (au):  <R**2>=            883.3823
 Charge=              1.0000 electrons
 Dipole moment (field-independent basis, Debye):
    X=              1.2096    Y=              0.6989    Z=              0.0000  Tot=              1.3970
 Quadrupole moment (field-independent basis, Debye-Ang):
   XX=            -30.7546   YY=            -32.2461   ZZ=            -42.5580
   XY=              1.2886   XZ=              0.0000   YZ=             -0.0000
 Traceless Quadrupole moment (field-independent basis, Debye-Ang):
   XX=              4.4316   YY=              2.9401   ZZ=             -7.3718
   XY=              1.2886   XZ=              0.0000   YZ=             -0.0000
 Octapole moment (field-independent basis, Debye-Ang**2):
  XXX=             39.6342  YYY=             33.0294  ZZZ=              0.0000  XYY=             13.2119
  XXY=             -2.5099  XXZ=             -0.0000  XZZ=              9.1758  YZZ=              5.2980
  YYZ=              0.0000  XYZ=             -0.0000
 Hexadecapole moment (field-independent basis, Debye-Ang**3):
 XXXX=           -362.4796 YYYY=           -473.2619 ZZZZ=            -39.8232 XXXY=             53.2663
 XXXZ=              0.0000 YYYX=             42.6424 YYYZ=              0.0000 ZZZX=              0.0000
 ZZZY=              0.0000 XXYY=           -135.2005 XXZZ=            -77.8797 YYZZ=            -90.7898
 XXYZ=              0.0000 YYXZ=              0.0000 ZZXY=             11.1750
 N-N= 3.435582985214D+02 E-N=-1.686108638697D+03  KE= 4.287382012253D+02
                          Isotropic Fermi Contact Couplings
        Atom                 a.u.       MegaHertz       Gauss      10(-4) cm-1
     1  C(13)             -0.02644     -29.72014     -10.60489      -9.91357
     2  C(13)              0.01648      18.52767       6.61113       6.18016
     3  C(13)             -0.00031      -0.35297      -0.12595      -0.11774
     4  C(13)             -0.01520     -17.08358      -6.09585      -5.69847
     5  C(13)             -0.00028      -0.30996      -0.11060      -0.10339
     6  C(13)              0.01645      18.48833       6.59710       6.16704
     7  H(1)               0.00167       7.44553       2.65675       2.48356
     8  H(1)              -0.00614     -27.44815      -9.79418      -9.15572
     9  H(1)               0.00079       3.51569       1.25449       1.17271
    10  H(1)              -0.00613     -27.41591      -9.78268      -9.14496
    11  F(19)              0.01172      49.30371      17.59279      16.44595
    12  F(19)              0.01174      49.39484      17.62531      16.47635
 --------------------------------------------------------
       Center         ----  Spin Dipole Couplings  ----
                      3XX-RR        3YY-RR        3ZZ-RR
 --------------------------------------------------------
     1   Atom        0.072368      0.079236     -0.151604
     2   Atom       -0.214411     -0.226961      0.441371
     3   Atom       -0.132404     -0.130862      0.263266
     4   Atom        0.041189      0.041166     -0.082355
     5   Atom       -0.124160     -0.139649      0.263809
     6   Atom       -0.224144     -0.216665      0.440809
     7   Atom        0.001003      0.005346     -0.006349
     8   Atom        0.023213     -0.017453     -0.005760
     9   Atom        0.002186      0.003350     -0.005536
    10   Atom       -0.028360      0.034119     -0.005760
    11   Atom       -0.270607     -0.275510      0.546117
    12   Atom       -0.273939     -0.272996      0.546935
 --------------------------------------------------------
                        XY            XZ            YZ
 --------------------------------------------------------
     1   Atom       -0.005937     -0.000000     -0.000000
     2   Atom       -0.000698      0.000000      0.000000
     3   Atom        0.008508      0.000000      0.000000
     4   Atom        0.000030      0.000000      0.000000
     5   Atom        0.003580     -0.000000      0.000000
     6   Atom        0.005093      0.000000     -0.000000
     7   Atom       -0.003739     -0.000000     -0.000000
     8   Atom       -0.024373      0.000000     -0.000000
     9   Atom       -0.000988      0.000000      0.000000
    10   Atom        0.005437      0.000000      0.000000
    11   Atom        0.000887     -0.000000     -0.000000
    12   Atom        0.002584     -0.000000      0.000000
 --------------------------------------------------------


 ---------------------------------------------------------------------------------
              Anisotropic Spin Dipole Couplings in Principal Axis System
 ---------------------------------------------------------------------------------

       Atom             a.u.   MegaHertz   Gauss  10(-4) cm-1        Axes

              Baa    -0.1516   -20.344    -7.259    -6.786  0.0000  0.0000  1.0000
     1 C(13)  Bbb     0.0689     9.251     3.301     3.086  0.8662  0.4997 -0.0000
              Bcc     0.0827    11.092     3.958     3.700 -0.4997  0.8662 -0.0000
 
              Baa    -0.2270   -30.461   -10.869   -10.161  0.0554  0.9985 -0.0000
     2 C(13)  Bbb    -0.2144   -28.767   -10.265    -9.596  0.9985 -0.0554 -0.0000
              Bcc     0.4414    59.228    21.134    19.756  0.0000  0.0000  1.0000
 
              Baa    -0.1402   -18.810    -6.712    -6.274  0.7383 -0.6745 -0.0000
     3 C(13)  Bbb    -0.1231   -16.518    -5.894    -5.510  0.6745  0.7383 -0.0000
              Bcc     0.2633    35.328    12.606    11.784  0.0000  0.0000  1.0000
 
              Baa    -0.0824   -11.051    -3.943    -3.686 -0.0000 -0.0000  1.0000
     4 C(13)  Bbb     0.0411     5.521     1.970     1.842 -0.5677  0.8233 -0.0000
              Bcc     0.0412     5.530     1.973     1.845  0.8233  0.5677  0.0000
 
              Baa    -0.1404   -18.845    -6.724    -6.286 -0.2148  0.9767 -0.0000
     5 C(13)  Bbb    -0.1234   -16.555    -5.907    -5.522  0.9767  0.2148  0.0000
              Bcc     0.2638    35.401    12.632    11.808 -0.0000  0.0000  1.0000
 
              Baa    -0.2267   -30.424   -10.856   -10.148  0.8922 -0.4517 -0.0000
     6 C(13)  Bbb    -0.2141   -28.728   -10.251    -9.583  0.4517  0.8922 -0.0000
              Bcc     0.4408    59.152    21.107    19.731  0.0000 -0.0000  1.0000
 
              Baa    -0.0063    -3.387    -1.209    -1.130  0.0000  0.0000  1.0000
     7 H(1)   Bbb    -0.0011    -0.613    -0.219    -0.205  0.8667  0.4989 -0.0000
              Bcc     0.0075     4.001     1.428     1.334 -0.4989  0.8667 -0.0000
 
              Baa    -0.0289   -15.399    -5.495    -5.136  0.4239  0.9057 -0.0000
     8 H(1)   Bbb    -0.0058    -3.073    -1.097    -1.025 -0.0000  0.0000  1.0000
              Bcc     0.0346    18.472     6.591     6.162  0.9057 -0.4239  0.0000
 
              Baa    -0.0055    -2.954    -1.054    -0.985 -0.0000 -0.0000  1.0000
     9 H(1)   Bbb     0.0016     0.865     0.309     0.288  0.8682  0.4962  0.0000
              Bcc     0.0039     2.089     0.745     0.697 -0.4962  0.8682 -0.0000
 
              Baa    -0.0288   -15.382    -5.489    -5.131  0.9963 -0.0861 -0.0000
    10 H(1)   Bbb    -0.0058    -3.073    -1.097    -1.025  0.0000 -0.0000  1.0000
              Bcc     0.0346    18.455     6.585     6.156  0.0861  0.9963  0.0000
 
              Baa    -0.2757  -138.446   -49.401   -46.181 -0.1728  0.9850  0.0000
    11 F(19)  Bbb    -0.2705  -135.827   -48.467   -45.307  0.9850  0.1728  0.0000
              Bcc     0.5461   274.274    97.868    91.488 -0.0000 -0.0000  1.0000
 
              Baa    -0.2761  -138.661   -49.478   -46.252  0.7680 -0.6405  0.0000
    12 F(19)  Bbb    -0.2708  -136.024   -48.537   -45.373  0.6405  0.7680  0.0000
              Bcc     0.5469   274.685    98.014    91.625 -0.0000  0.0000  1.0000
 

 ---------------------------------------------------------------------------------

 No NMR shielding tensors so no spin-rotation constants.
 Leave Link  601 at Wed Jan 29 15:49:46 2025, MaxMem=   104857600 cpu:               0.1 elap:               0.1
 (Enter /sw/cluster/pub/apps//g16/l701.exe)
 ... and contract with generalized density number  0.
 Compute integral first derivatives.
 Leave Link  701 at Wed Jan 29 15:49:46 2025, MaxMem=   104857600 cpu:               0.1 elap:               0.1
 (Enter /sw/cluster/pub/apps//g16/l702.exe)
 L702 exits ... SP integral derivatives will be done elsewhere.
 Leave Link  702 at Wed Jan 29 15:49:46 2025, MaxMem=   104857600 cpu:               0.0 elap:               0.0
 (Enter /sw/cluster/pub/apps//g16/l703.exe)
 Integral derivatives from FoFJK, PRISM(SPDF).
 Compute integral first derivatives, UseDBF=F ICtDFT=           0.
 Calling FoFJK, ICntrl=      2127 FMM=F ISym2X=0 I1Cent= 0 IOpClX= 1 NMat=1 NMatS=1 NMatT=0.
 FoFJK:  IHMeth= 1 ICntrl=    2127 DoSepK=F KAlg= 0 I1Cent=           0 FoldK=F
 IRaf=         0 NMat=       1 IRICut=       1 DoRegI=T DoRafI=F ISym2E= 0 IDoP0=0 IntGTp=1.
 FoFCou: FMM=F IPFlag=           0 FMFlag=      100000 FMFlg1=         800
         NFxFlg=           0 DoJE=F BraDBF=F KetDBF=F FulRan=T
         wScrn=  0.000000 ICntrl=      2127 IOpCl=  1 I1Cent=           0 NGrid=           0
         NMat0=    1 NMatS0=      1 NMatT0=    0 NMatD0=    1 NMtDS0=    0 NMtDT0=    0
 Symmetry not used in FoFCou.
 Leave Link  703 at Wed Jan 29 15:49:57 2025, MaxMem=   104857600 cpu:              10.0 elap:              10.2
 (Enter /sw/cluster/pub/apps//g16/l716.exe)
 Dipole        = 4.75906208D-01 2.74955884D-01 9.47146658D-10
 -------------------------------------------------------------------
 Center     Atomic                   Forces (Hartrees/Bohr)
 Number     Number              X              Y              Z
 -------------------------------------------------------------------
      1        6           0.008014333    0.004658262    0.000000000
      2        6           0.033350336    0.023212873    0.000000000
      3        6          -0.047072811   -0.048382341   -0.000000000
      4        6          -0.004470136   -0.002591928    0.000000000
      5        6          -0.065456783   -0.016562962   -0.000000000
      6        6           0.036813381    0.017243701    0.000000000
      7        1          -0.000480711   -0.000273353   -0.000000000
      8        1           0.001849240   -0.000584715   -0.000000000
      9        1          -0.000817972   -0.000480439    0.000000000
     10        1           0.000407862    0.001900501    0.000000000
     11        9           0.003708120    0.037274769    0.000000000
     12        9           0.034155140   -0.015414368    0.000000000
 -------------------------------------------------------------------
 Cartesian Forces:  Max     0.065456783 RMS     0.020647831
 Leave Link  716 at Wed Jan 29 15:49:57 2025, MaxMem=   104857600 cpu:               0.0 elap:               0.0
 (Enter /sw/cluster/pub/apps//g16/l103.exe)

 GradGradGradGradGradGradGradGradGradGradGradGradGradGradGradGradGradGrad
 Berny optimization.
 FormGI is forming the generalized inverse of G from B-inverse, IUseBI=4.
 Internal  Forces:  Max     0.046243103 RMS     0.011845632
 Search for a local minimum.
 Step number   1 out of a maximum of   64
 All quantities printed in internal units (Hartrees-Bohrs-Radians)
 RMS Force = .11846D-01 SwitMx=.10000D-02 MixMth= 1
 Mixed Optimization -- RFO/linear search
 Second derivative matrix not updated -- first step.
 ITU=  0
     Eigenvalues ---    0.02220   0.02236   0.02257   0.02265   0.02288
     Eigenvalues ---    0.02303   0.02303   0.02303   0.02304   0.16000
     Eigenvalues ---    0.16000   0.16000   0.16000   0.22000   0.23508
     Eigenvalues ---    0.23518   0.25000   0.25000   0.35458   0.35632
     Eigenvalues ---    0.35633   0.35688   0.43308   0.43720   0.47521
     Eigenvalues ---    0.47924   0.48414   0.48429   0.57003   0.57004
 RFO step:  Lambda=-1.52585306D-02 EMin= 2.22006986D-02
 Linear search not attempted -- first point.
 Iteration  1 RMS(Cart)=  0.03097734 RMS(Int)=  0.00026006
 Iteration  2 RMS(Cart)=  0.00041583 RMS(Int)=  0.00001024
 Iteration  3 RMS(Cart)=  0.00000013 RMS(Int)=  0.00001024
 ITry= 1 IFail=0 DXMaxC= 8.51D-02 DCOld= 1.00D+10 DXMaxT= 3.00D-01 DXLimC= 3.00D+00 Rises=F
 Variable       Old X    -DE/DX   Delta X   Delta X   Delta X     New X
                                 (Linear)    (Quad)   (Total)
    R1        2.62688  -0.00314   0.00000  -0.00653  -0.00652   2.62036
    R2        2.62683  -0.00317   0.00000  -0.00660  -0.00659   2.62025
    R3        2.04937  -0.00055   0.00000  -0.00150  -0.00150   2.04788
    R4        2.61484   0.04624   0.00000   0.09257   0.09257   2.70741
    R5        2.04662   0.00188   0.00000   0.00507   0.00507   2.05168
    R6        2.61501  -0.00522   0.00000  -0.01035  -0.01037   2.60464
    R7        2.53394  -0.03729   0.00000  -0.06371  -0.06371   2.47022
    R8        2.61510  -0.00520   0.00000  -0.01032  -0.01034   2.60477
    R9        2.04573   0.00095   0.00000   0.00255   0.00255   2.04828
   R10        2.61484   0.04624   0.00000   0.09256   0.09255   2.70740
   R11        2.53394  -0.03730   0.00000  -0.06374  -0.06374   2.47020
   R12        2.04659   0.00189   0.00000   0.00509   0.00509   2.05168
    A1        2.11430  -0.00818   0.00000  -0.03428  -0.03425   2.08005
    A2        2.08441   0.00409   0.00000   0.01716   0.01714   2.10155
    A3        2.08448   0.00408   0.00000   0.01712   0.01710   2.10158
    A4        2.06236   0.00339   0.00000   0.01509   0.01510   2.07746
    A5        2.12887  -0.00217   0.00000  -0.01026  -0.01026   2.11860
    A6        2.09196  -0.00122   0.00000  -0.00483  -0.00484   2.08712
    A7        2.14246   0.00540   0.00000   0.02136   0.02135   2.16381
    A8        2.07704  -0.00717   0.00000  -0.02755  -0.02754   2.04950
    A9        2.06369   0.00177   0.00000   0.00618   0.00619   2.06988
   A10        2.04244  -0.00941   0.00000  -0.03863  -0.03867   2.00377
   A11        2.12048   0.00470   0.00000   0.01928   0.01929   2.13977
   A12        2.12027   0.00471   0.00000   0.01936   0.01938   2.13964
   A13        2.14258   0.00540   0.00000   0.02133   0.02132   2.16390
   A14        2.06349   0.00179   0.00000   0.00627   0.00627   2.06976
   A15        2.07712  -0.00719   0.00000  -0.02760  -0.02759   2.04953
   A16        2.06223   0.00340   0.00000   0.01513   0.01515   2.07738
   A17        2.12885  -0.00216   0.00000  -0.01022  -0.01023   2.11862
   A18        2.09211  -0.00123   0.00000  -0.00491  -0.00492   2.08718
    D1        0.00000  -0.00000   0.00000  -0.00000   0.00000   0.00000
    D2        3.14159  -0.00000   0.00000  -0.00000   0.00000   3.14159
    D3        3.14159   0.00000   0.00000   0.00000   0.00000   3.14159
    D4        0.00000   0.00000   0.00000   0.00000   0.00000   0.00000
    D5       -0.00000   0.00000   0.00000   0.00000   0.00000   0.00000
    D6        3.14159  -0.00000   0.00000  -0.00000   0.00000   3.14159
    D7        3.14159  -0.00000   0.00000  -0.00000   0.00000   3.14159
    D8        0.00000  -0.00000   0.00000  -0.00000  -0.00000   0.00000
    D9        0.00000  -0.00000   0.00000  -0.00000  -0.00000   0.00000
   D10        3.14159   0.00000   0.00000   0.00000   0.00000   3.14159
   D11        3.14159  -0.00000   0.00000  -0.00000   0.00000   3.14159
   D12       -0.00000   0.00000   0.00000   0.00000   0.00000   0.00000
   D13       -0.00000   0.00000   0.00000   0.00000   0.00000   0.00000
   D14        3.14159   0.00000   0.00000   0.00000   0.00000   3.14159
   D15        3.14159   0.00000   0.00000  -0.00000   0.00000   3.14159
   D16        0.00000  -0.00000   0.00000  -0.00000  -0.00000   0.00000
   D17        0.00000  -0.00000   0.00000  -0.00000  -0.00000   0.00000
   D18        3.14159   0.00000   0.00000   0.00000   0.00000   3.14159
   D19        3.14159  -0.00000   0.00000  -0.00000   0.00000   3.14159
   D20       -0.00000   0.00000   0.00000   0.00000   0.00000   0.00000
   D21       -0.00000   0.00000   0.00000   0.00000   0.00000   0.00000
   D22        3.14159   0.00000   0.00000   0.00000   0.00000   3.14159
   D23        3.14159  -0.00000   0.00000  -0.00000   0.00000   3.14159
   D24        0.00000  -0.00000   0.00000  -0.00000  -0.00000   0.00000
         Item               Value     Threshold  Converged?
 Maximum Force            0.046243     0.000450     NO 
 RMS     Force            0.011846     0.000300     NO 
 Maximum Displacement     0.085062     0.001800     NO 
 RMS     Displacement     0.031027     0.001200     NO 
 Predicted change in Energy=-7.879848D-03
 Lowest energy point so far.  Saving SCF results.
 GradGradGradGradGradGradGradGradGradGradGradGradGradGradGradGradGradGrad

 Leave Link  103 at Wed Jan 29 15:49:57 2025, MaxMem=   104857600 cpu:               0.0 elap:               0.1
 (Enter /sw/cluster/pub/apps//g16/l202.exe)
                          Input orientation:                          
 ---------------------------------------------------------------------
 Center     Atomic      Atomic             Coordinates (Angstroms)
 Number     Number       Type             X           Y           Z
 ---------------------------------------------------------------------
      1          6           0        1.229367    0.709822    0.000000
      2          6           0        1.219406   -0.676779    0.000000
      3          6           0       -0.038263   -1.363004   -0.000000
      4          6           0       -1.261900   -0.728601   -0.000000
      5          6           0       -1.199443    0.648367   -0.000000
      6          6           0        0.023627    1.394497   -0.000000
      7          1           0        2.167887    1.251639    0.000000
      8          1           0        2.142151   -1.248876    0.000000
      9          1           0       -2.200631   -1.270478    0.000000
     10          1           0       -0.010443    2.479663   -0.000000
     11          9           0       -0.011101   -2.669906    0.000000
     12          9           0       -2.317722    1.325239    0.000000
 ---------------------------------------------------------------------
                    Distance matrix (angstroms):
                    1          2          3          4          5
     1  C    0.000000
     2  C    1.386637   0.000000
     3  C    2.429710   1.432701   0.000000
     4  C    2.876712   2.481847   1.378316   0.000000
     5  C    2.429587   2.758050   2.322488   1.378384   0.000000
     6  C    1.386575   2.391667   2.758195   2.481960   1.432693
     7  H    1.083690   2.149049   3.421031   3.960403   3.420942
     8  H    2.160943   1.085704   2.183398   3.443581   3.842627
     9  H    3.960615   3.471185   2.164347   1.083903   2.164334
    10  H    2.160895   3.387574   3.842767   3.443705   2.183429
    11  F    3.600184   2.342371   1.307185   2.309364   3.524641
    12  F    3.600081   4.064401   3.524569   2.309333   1.307175
                    6          7          8          9         10
     6  C    0.000000
     7  H    2.149014   0.000000
     8  H    3.387561   2.500648   0.000000
     9  H    3.471226   5.044306   4.342836   0.000000
    10  H    1.085700   2.500633   4.305307   4.342865   0.000000
    11  F    4.064551   4.486257   2.579887   2.598546   5.149569
    12  F    2.342373   4.486213   5.149421   2.598357   2.579967
                   11         12
    11  F    0.000000
    12  F    4.613208   0.000000
 Symmetry turned off by external request.
 Stoichiometry    C6H4F2(1+,2)
 Framework group  CS[SG(C6H4F2)]
 Deg. of freedom    21
 Full point group                 CS      NOp   2
 Rotational constants (GHZ):           3.6682351           1.8167107           1.2149841
 Leave Link  202 at Wed Jan 29 15:49:57 2025, MaxMem=   104857600 cpu:               0.0 elap:               0.0
 (Enter /sw/cluster/pub/apps//g16/l301.exe)
 Standard basis: 6-311++G(d,p) (5D, 7F)
 Ernie: Thresh=  0.10000D-02 Tol=  0.10000D-05 Strict=F.
   204 basis functions,   324 primitive gaussians,   212 cartesian basis functions
    29 alpha electrons       28 beta electrons
       nuclear repulsion energy       343.9899880701 Hartrees.
 IExCor= 1009 DFT=T Ex+Corr=PBE1PBE ExCW=0 ScaHFX=  0.250000
 ScaDFX=  0.750000  0.750000  1.000000  1.000000 ScalE2=  1.000000  1.000000
 IRadAn=      5 IRanWt=     -1 IRanGd=            0 ICorTp=0 IEmpDi=  4
 NAtoms=   12 NActive=   12 NUniq=   12 SFac= 1.00D+00 NAtFMM=   60 NAOKFM=F Big=F
 Integral buffers will be    131072 words long.
 Raffenetti 2 integral format.
 Two-electron integral symmetry is turned off.
 Leave Link  301 at Wed Jan 29 15:49:57 2025, MaxMem=   104857600 cpu:               0.0 elap:               0.0
 (Enter /sw/cluster/pub/apps//g16/l302.exe)
 NPDir=0 NMtPBC=     1 NCelOv=     1 NCel=       1 NClECP=     1 NCelD=      1
         NCelK=      1 NCelE2=     1 NClLst=     1 CellRange=     0.0.
 One-electron integrals computed using PRISM.
 NBasis=   204 RedAO= T EigKep=  2.30D-06  NBF=   204
 NBsUse=   204 1.00D-06 EigRej= -1.00D+00 NBFU=   204
 Precomputing XC quadrature grid using
 IXCGrd= 4 IRadAn=           5 IRanWt=          -1 IRanGd=           0 AccXCQ= 0.00D+00.
 Generated NRdTot=       0 NPtTot=           0 NUsed=           0 NTot=          32
 NSgBfM=   212   212   212   212   212 MxSgAt=    12 MxSgA2=    12.
 Leave Link  302 at Wed Jan 29 15:49:57 2025, MaxMem=   104857600 cpu:               0.1 elap:               0.1
 (Enter /sw/cluster/pub/apps//g16/l303.exe)
 DipDrv:  MaxL=1.
 Leave Link  303 at Wed Jan 29 15:49:57 2025, MaxMem=   104857600 cpu:               0.0 elap:               0.0
 (Enter /sw/cluster/pub/apps//g16/l401.exe)
 Initial guess from the checkpoint file:  "1-3-DFB-CAT.chk"
 B after Tr=     0.001234    0.000711   -0.000000
         Rot=    1.000000    0.000000   -0.000000    0.000006 Ang=   0.00 deg.
 Guess basis will be translated and rotated to current coordinates.
 JPrj=2 DoOrth=T DoCkMO=T.
 Initial guess <Sx>= 0.0000 <Sy>= 0.0000 <Sz>= 0.5000 <S**2>= 0.7705 S= 0.5102
 Generating alternative initial guess.
 ExpMin= 3.60D-02 ExpMax= 1.14D+04 ExpMxC= 1.72D+03 IAcc=3 IRadAn=         5 AccDes= 0.00D+00
 Harris functional with IExCor= 1009 and IRadAn=       5 diagonalized for initial guess.
 HarFok:  IExCor= 1009 AccDes= 0.00D+00 IRadAn=         5 IDoV= 1 UseB2=F ITyADJ=14
 ICtDFT=  3500011 ScaDFX=  1.000000  1.000000  1.000000  1.000000
 FoFCou: FMM=F IPFlag=           0 FMFlag=      100000 FMFlg1=           0
         NFxFlg=           0 DoJE=T BraDBF=F KetDBF=T FulRan=T
         wScrn=  0.000000 ICntrl=       500 IOpCl=  0 I1Cent=   200000004 NGrid=           0
         NMat0=    1 NMatS0=      1 NMatT0=    0 NMatD0=    1 NMtDS0=    0 NMtDT0=    0
 Symmetry not used in FoFCou.
 Harris En= -430.130069298415    
 Leave Link  401 at Wed Jan 29 15:49:59 2025, MaxMem=   104857600 cpu:               1.3 elap:               1.3
 (Enter /sw/cluster/pub/apps//g16/l502.exe)
 Two-electron integral symmetry not used.
 UHF open shell SCF:
 Using DIIS extrapolation, IDIIS=  1040.
 NGot=   104857600 LenX=   104764860 LenY=   104719475
 Requested convergence on RMS density matrix=1.00D-08 within 128 cycles.
 Requested convergence on MAX density matrix=1.00D-06.
 Requested convergence on             energy=1.00D-06.
 No special actions if energy rises.
 Fock matrices will be formed incrementally for  20 cycles.

 Cycle   1  Pass 1  IDiag  1:
 FoFJK:  IHMeth= 1 ICntrl=       0 DoSepK=F KAlg= 0 I1Cent=           0 FoldK=F
 IRaf= 970000000 NMat=       1 IRICut=       1 DoRegI=T DoRafI=F ISym2E= 0 IDoP0=0 IntGTp=1.
 FoFCou: FMM=F IPFlag=           0 FMFlag=      100000 FMFlg1=           0
         NFxFlg=           0 DoJE=F BraDBF=F KetDBF=F FulRan=T
         wScrn=  0.000000 ICntrl=         0 IOpCl=  1 I1Cent=           0 NGrid=           0
         NMat0=    1 NMatS0=      1 NMatT0=    0 NMatD0=    1 NMtDS0=    0 NMtDT0=    0
 Symmetry not used in FoFCou.
 E= -430.034379929163    
 DIIS: error= 3.45D-03 at cycle   1 NSaved=   1.
 NSaved= 1 IEnMin= 1 EnMin= -430.034379929163     IErMin= 1 ErrMin= 3.45D-03
 ErrMax= 3.45D-03  0.00D+00 EMaxC= 1.00D-01 BMatC= 1.73D-02 BMatP= 1.73D-02
 IDIUse=3 WtCom= 9.65D-01 WtEn= 3.45D-02
 Coeff-Com:  0.100D+01
 Coeff-En:   0.100D+01
 Coeff:      0.100D+01
 Gap=     0.477 Goal=   None    Shift=    0.000
 Gap=     0.474 Goal=   None    Shift=    0.000
 GapD=    0.474 DampG=2.000 DampE=1.000 DampFc=2.0000 IDamp=-1.
 RMSDP=7.28D-03 MaxDP=4.26D-01              OVMax= 2.21D-02

 Cycle   2  Pass 1  IDiag  1:
 RMSU=  4.12D-03    CP:  8.85D-01
 E= -430.039502330791     Delta-E=       -0.005122401628 Rises=F Damp=F
 DIIS: error= 1.53D-03 at cycle   2 NSaved=   2.
 NSaved= 2 IEnMin= 2 EnMin= -430.039502330791     IErMin= 2 ErrMin= 1.53D-03
 ErrMax= 1.53D-03  0.00D+00 EMaxC= 1.00D-01 BMatC= 1.01D-03 BMatP= 1.73D-02
 IDIUse=3 WtCom= 9.85D-01 WtEn= 1.53D-02
 Coeff-Com:  0.514D-01 0.949D+00
 Coeff-En:   0.000D+00 0.100D+01
 Coeff:      0.506D-01 0.949D+00
 Gap=     0.246 Goal=   None    Shift=    0.000
 Gap=     0.097 Goal=   None    Shift=    0.000
 RMSDP=4.62D-04 MaxDP=2.21D-02 DE=-5.12D-03 OVMax= 8.59D-03

 Cycle   3  Pass 1  IDiag  1:
 RMSU=  4.28D-04    CP:  8.87D-01  1.03D+00
 E= -430.039485891180     Delta-E=        0.000016439611 Rises=F Damp=F
 DIIS: error= 1.58D-03 at cycle   3 NSaved=   3.
 NSaved= 3 IEnMin= 2 EnMin= -430.039502330791     IErMin= 2 ErrMin= 1.53D-03
 ErrMax= 1.58D-03  0.00D+00 EMaxC= 1.00D-01 BMatC= 1.09D-03 BMatP= 1.01D-03
 IDIUse=3 WtCom= 9.84D-01 WtEn= 1.58D-02
 Coeff-Com: -0.185D-01 0.517D+00 0.502D+00
 Coeff-En:   0.000D+00 0.518D+00 0.482D+00
 Coeff:     -0.182D-01 0.517D+00 0.501D+00
 Gap=     0.249 Goal=   None    Shift=    0.000
 Gap=     0.100 Goal=   None    Shift=    0.000
 RMSDP=2.73D-04 MaxDP=1.62D-02 DE= 1.64D-05 OVMax= 5.04D-03

 Cycle   4  Pass 1  IDiag  1:
 RMSU=  1.12D-04    CP:  8.83D-01  1.03D+00  6.30D-01
 E= -430.039729298620     Delta-E=       -0.000243407439 Rises=F Damp=F
 DIIS: error= 2.61D-04 at cycle   4 NSaved=   4.
 NSaved= 4 IEnMin= 4 EnMin= -430.039729298620     IErMin= 4 ErrMin= 2.61D-04
 ErrMax= 2.61D-04  0.00D+00 EMaxC= 1.00D-01 BMatC= 2.64D-05 BMatP= 1.01D-03
 IDIUse=3 WtCom= 9.97D-01 WtEn= 2.61D-03
 Coeff-Com: -0.821D-02 0.117D+00 0.183D+00 0.708D+00
 Coeff-En:   0.000D+00 0.000D+00 0.000D+00 0.100D+01
 Coeff:     -0.819D-02 0.117D+00 0.182D+00 0.709D+00
 Gap=     0.249 Goal=   None    Shift=    0.000
 Gap=     0.100 Goal=   None    Shift=    0.000
 RMSDP=5.20D-05 MaxDP=4.81D-03 DE=-2.43D-04 OVMax= 9.03D-04

 Cycle   5  Pass 1  IDiag  1:
 RMSU=  3.53D-05    CP:  8.84D-01  1.03D+00  5.96D-01  7.43D-01
 E= -430.039733571471     Delta-E=       -0.000004272851 Rises=F Damp=F
 DIIS: error= 1.35D-04 at cycle   5 NSaved=   5.
 NSaved= 5 IEnMin= 5 EnMin= -430.039733571471     IErMin= 5 ErrMin= 1.35D-04
 ErrMax= 1.35D-04  0.00D+00 EMaxC= 1.00D-01 BMatC= 6.20D-06 BMatP= 2.64D-05
 IDIUse=3 WtCom= 9.99D-01 WtEn= 1.35D-03
 Coeff-Com: -0.344D-02 0.324D-01 0.690D-01 0.385D+00 0.517D+00
 Coeff-En:   0.000D+00 0.000D+00 0.000D+00 0.000D+00 0.100D+01
 Coeff:     -0.344D-02 0.324D-01 0.689D-01 0.384D+00 0.518D+00
 Gap=     0.249 Goal=   None    Shift=    0.000
 Gap=     0.100 Goal=   None    Shift=    0.000
 RMSDP=1.74D-05 MaxDP=1.22D-03 DE=-4.27D-06 OVMax= 4.61D-04

 Cycle   6  Pass 1  IDiag  1:
 RMSU=  1.02D-05    CP:  8.84D-01  1.03D+00  5.99D-01  7.95D-01  9.10D-01
 E= -430.039734734646     Delta-E=       -0.000001163176 Rises=F Damp=F
 DIIS: error= 4.61D-05 at cycle   6 NSaved=   6.
 NSaved= 6 IEnMin= 6 EnMin= -430.039734734646     IErMin= 6 ErrMin= 4.61D-05
 ErrMax= 4.61D-05  0.00D+00 EMaxC= 1.00D-01 BMatC= 5.51D-07 BMatP= 6.20D-06
 IDIUse=1 WtCom= 1.00D+00 WtEn= 0.00D+00
 Coeff-Com:  0.676D-03-0.139D-01-0.154D-01-0.182D-01 0.185D+00 0.862D+00
 Coeff:      0.676D-03-0.139D-01-0.154D-01-0.182D-01 0.185D+00 0.862D+00
 Gap=     0.249 Goal=   None    Shift=    0.000
 Gap=     0.100 Goal=   None    Shift=    0.000
 RMSDP=1.26D-05 MaxDP=7.93D-04 DE=-1.16D-06 OVMax= 4.61D-04

 Cycle   7  Pass 1  IDiag  1:
 RMSU=  7.75D-06    CP:  8.84D-01  1.03D+00  6.09D-01  8.10D-01  1.05D+00
                    CP:  1.30D+00
 E= -430.039735044894     Delta-E=       -0.000000310248 Rises=F Damp=F
 DIIS: error= 2.56D-05 at cycle   7 NSaved=   7.
 NSaved= 7 IEnMin= 7 EnMin= -430.039735044894     IErMin= 7 ErrMin= 2.56D-05
 ErrMax= 2.56D-05  0.00D+00 EMaxC= 1.00D-01 BMatC= 1.23D-07 BMatP= 5.51D-07
 IDIUse=1 WtCom= 1.00D+00 WtEn= 0.00D+00
 Coeff-Com:  0.874D-03-0.114D-01-0.211D-01-0.903D-01-0.589D-01 0.279D+00
 Coeff-Com:  0.901D+00
 Coeff:      0.874D-03-0.114D-01-0.211D-01-0.903D-01-0.589D-01 0.279D+00
 Coeff:      0.901D+00
 Gap=     0.249 Goal=   None    Shift=    0.000
 Gap=     0.100 Goal=   None    Shift=    0.000
 RMSDP=6.80D-06 MaxDP=5.47D-04 DE=-3.10D-07 OVMax= 2.93D-04

 Cycle   8  Pass 1  IDiag  1:
 RMSU=  2.33D-06    CP:  8.84D-01  1.03D+00  6.06D-01  8.34D-01  1.11D+00
                    CP:  1.74D+00  1.30D+00
 E= -430.039735158595     Delta-E=       -0.000000113701 Rises=F Damp=F
 DIIS: error= 1.89D-05 at cycle   8 NSaved=   8.
 NSaved= 8 IEnMin= 8 EnMin= -430.039735158595     IErMin= 8 ErrMin= 1.89D-05
 ErrMax= 1.89D-05  0.00D+00 EMaxC= 1.00D-01 BMatC= 2.88D-08 BMatP= 1.23D-07
 IDIUse=1 WtCom= 1.00D+00 WtEn= 0.00D+00
 Coeff-Com:  0.539D-04 0.180D-02-0.108D-02-0.199D-01-0.788D-01-0.198D+00
 Coeff-Com:  0.319D+00 0.977D+00
 Coeff:      0.539D-04 0.180D-02-0.108D-02-0.199D-01-0.788D-01-0.198D+00
 Coeff:      0.319D+00 0.977D+00
 Gap=     0.249 Goal=   None    Shift=    0.000
 Gap=     0.100 Goal=   None    Shift=    0.000
 RMSDP=4.20D-06 MaxDP=2.25D-04 DE=-1.14D-07 OVMax= 2.55D-04

 Cycle   9  Pass 1  IDiag  1:
 RMSU=  8.49D-07    CP:  8.84D-01  1.03D+00  6.05D-01  8.43D-01  1.15D+00
                    CP:  1.98D+00  1.58D+00  1.48D+00
 E= -430.039735194336     Delta-E=       -0.000000035741 Rises=F Damp=F
 DIIS: error= 9.33D-06 at cycle   9 NSaved=   9.
 NSaved= 9 IEnMin= 9 EnMin= -430.039735194336     IErMin= 9 ErrMin= 9.33D-06
 ErrMax= 9.33D-06  0.00D+00 EMaxC= 1.00D-01 BMatC= 6.08D-09 BMatP= 2.88D-08
 IDIUse=1 WtCom= 1.00D+00 WtEn= 0.00D+00
 Coeff-Com: -0.122D-03 0.257D-02 0.289D-02 0.534D-02-0.251D-01-0.132D+00
 Coeff-Com: -0.100D-01 0.372D+00 0.785D+00
 Coeff:     -0.122D-03 0.257D-02 0.289D-02 0.534D-02-0.251D-01-0.132D+00
 Coeff:     -0.100D-01 0.372D+00 0.785D+00
 Gap=     0.249 Goal=   None    Shift=    0.000
 Gap=     0.100 Goal=   None    Shift=    0.000
 RMSDP=1.80D-06 MaxDP=1.13D-04 DE=-3.57D-08 OVMax= 9.29D-05

 Cycle  10  Pass 1  IDiag  1:
 RMSU=  5.19D-07    CP:  8.84D-01  1.03D+00  6.07D-01  8.44D-01  1.17D+00
                    CP:  2.05D+00  1.71D+00  1.57D+00  1.01D+00
 E= -430.039735199317     Delta-E=       -0.000000004980 Rises=F Damp=F
 DIIS: error= 4.39D-06 at cycle  10 NSaved=  10.
 NSaved=10 IEnMin=10 EnMin= -430.039735199317     IErMin=10 ErrMin= 4.39D-06
 ErrMax= 4.39D-06  0.00D+00 EMaxC= 1.00D-01 BMatC= 1.61D-09 BMatP= 6.08D-09
 IDIUse=1 WtCom= 1.00D+00 WtEn= 0.00D+00
 Coeff-Com: -0.583D-04 0.587D-03 0.140D-02 0.650D-02 0.642D-02-0.700D-02
 Coeff-Com: -0.724D-01-0.967D-01 0.350D+00 0.811D+00
 Coeff:     -0.583D-04 0.587D-03 0.140D-02 0.650D-02 0.642D-02-0.700D-02
 Coeff:     -0.724D-01-0.967D-01 0.350D+00 0.811D+00
 Gap=     0.249 Goal=   None    Shift=    0.000
 Gap=     0.100 Goal=   None    Shift=    0.000
 RMSDP=6.00D-07 MaxDP=3.36D-05 DE=-4.98D-09 OVMax= 4.39D-05

 Cycle  11  Pass 1  IDiag  1:
 RMSU=  1.70D-07    CP:  8.84D-01  1.03D+00  6.07D-01  8.46D-01  1.17D+00
                    CP:  2.08D+00  1.75D+00  1.65D+00  1.24D+00  1.00D+00
 E= -430.039735200248     Delta-E=       -0.000000000931 Rises=F Damp=F
 DIIS: error= 1.23D-06 at cycle  11 NSaved=  11.
 NSaved=11 IEnMin=11 EnMin= -430.039735200248     IErMin=11 ErrMin= 1.23D-06
 ErrMax= 1.23D-06  0.00D+00 EMaxC= 1.00D-01 BMatC= 3.75D-10 BMatP= 1.61D-09
 IDIUse=1 WtCom= 1.00D+00 WtEn= 0.00D+00
 Coeff-Com: -0.371D-05-0.245D-03 0.175D-03 0.283D-02 0.919D-02 0.269D-01
 Coeff-Com: -0.346D-01-0.132D+00 0.246D-01 0.417D+00 0.686D+00
 Coeff:     -0.371D-05-0.245D-03 0.175D-03 0.283D-02 0.919D-02 0.269D-01
 Coeff:     -0.346D-01-0.132D+00 0.246D-01 0.417D+00 0.686D+00
 Gap=     0.249 Goal=   None    Shift=    0.000
 Gap=     0.100 Goal=   None    Shift=    0.000
 RMSDP=1.67D-07 MaxDP=6.44D-06 DE=-9.31D-10 OVMax= 1.07D-05

 Cycle  12  Pass 1  IDiag  1:
 RMSU=  7.44D-08    CP:  8.84D-01  1.03D+00  6.07D-01  8.46D-01  1.17D+00
                    CP:  2.09D+00  1.74D+00  1.68D+00  1.29D+00  1.16D+00
                    CP:  8.34D-01
 E= -430.039735200372     Delta-E=       -0.000000000124 Rises=F Damp=F
 DIIS: error= 4.65D-07 at cycle  12 NSaved=  12.
 NSaved=12 IEnMin=12 EnMin= -430.039735200372     IErMin=12 ErrMin= 4.65D-07
 ErrMax= 4.65D-07  0.00D+00 EMaxC= 1.00D-01 BMatC= 7.70D-11 BMatP= 3.75D-10
 IDIUse=1 WtCom= 1.00D+00 WtEn= 0.00D+00
 Coeff-Com:  0.748D-05-0.251D-03-0.175D-03 0.299D-03 0.354D-02 0.156D-01
 Coeff-Com: -0.729D-02-0.562D-01-0.412D-01 0.104D+00 0.390D+00 0.591D+00
 Coeff:      0.748D-05-0.251D-03-0.175D-03 0.299D-03 0.354D-02 0.156D-01
 Coeff:     -0.729D-02-0.562D-01-0.412D-01 0.104D+00 0.390D+00 0.591D+00
 Gap=     0.249 Goal=   None    Shift=    0.000
 Gap=     0.100 Goal=   None    Shift=    0.000
 RMSDP=6.16D-08 MaxDP=2.54D-06 DE=-1.24D-10 OVMax= 3.93D-06

 Cycle  13  Pass 1  IDiag  1:
 RMSU=  3.70D-08    CP:  8.84D-01  1.03D+00  6.07D-01  8.46D-01  1.17D+00
                    CP:  2.09D+00  1.75D+00  1.68D+00  1.29D+00  1.17D+00
                    CP:  9.38D-01  8.20D-01
 E= -430.039735200392     Delta-E=       -0.000000000021 Rises=F Damp=F
 DIIS: error= 2.09D-07 at cycle  13 NSaved=  13.
 NSaved=13 IEnMin=13 EnMin= -430.039735200392     IErMin=13 ErrMin= 2.09D-07
 ErrMax= 2.09D-07  0.00D+00 EMaxC= 1.00D-01 BMatC= 1.57D-11 BMatP= 7.70D-11
 IDIUse=1 WtCom= 1.00D+00 WtEn= 0.00D+00
 Coeff-Com:  0.497D-05-0.118D-03-0.145D-03-0.291D-03 0.585D-03 0.516D-02
 Coeff-Com:  0.289D-03-0.135D-01-0.274D-01 0.310D-02 0.140D+00 0.352D+00
 Coeff-Com:  0.541D+00
 Coeff:      0.497D-05-0.118D-03-0.145D-03-0.291D-03 0.585D-03 0.516D-02
 Coeff:      0.289D-03-0.135D-01-0.274D-01 0.310D-02 0.140D+00 0.352D+00
 Coeff:      0.541D+00
 Gap=     0.249 Goal=   None    Shift=    0.000
 Gap=     0.100 Goal=   None    Shift=    0.000
 RMSDP=2.99D-08 MaxDP=1.20D-06 DE=-2.06D-11 OVMax= 1.68D-06

 Cycle  14  Pass 1  IDiag  1:
 RMSU=  1.58D-08    CP:  8.84D-01  1.03D+00  6.07D-01  8.46D-01  1.17D+00
                    CP:  2.09D+00  1.75D+00  1.68D+00  1.30D+00  1.16D+00
                    CP:  9.57D-01  9.38D-01  8.70D-01
 E= -430.039735200397     Delta-E=       -0.000000000005 Rises=F Damp=F
[...]
   R10        2.72316  -0.00002   0.00000  -0.00006  -0.00006   2.72309
   R11        2.44669   0.00002   0.00000   0.00005   0.00005   2.44673
   R12        2.05163  -0.00000   0.00000  -0.00001  -0.00001   2.05162
    A1        2.07662  -0.00000   0.00000  -0.00004  -0.00004   2.07657
    A2        2.10328   0.00000   0.00000   0.00003   0.00003   2.10331
    A3        2.10328   0.00000   0.00000   0.00001   0.00001   2.10330
    A4        2.08419   0.00000   0.00000   0.00001   0.00001   2.08420
    A5        2.13874   0.00001   0.00000   0.00009   0.00009   2.13883
    A6        2.06025  -0.00001   0.00000  -0.00010  -0.00010   2.06015
    A7        2.15477   0.00001   0.00000   0.00008   0.00008   2.15485
    A8        2.03578  -0.00001   0.00000  -0.00006  -0.00006   2.03572
    A9        2.09263  -0.00000   0.00000  -0.00002  -0.00002   2.09261
   A10        2.01183  -0.00002   0.00000  -0.00013  -0.00013   2.01170
   A11        2.13568   0.00001   0.00000   0.00005   0.00005   2.13573
   A12        2.13567   0.00001   0.00000   0.00008   0.00008   2.13575
   A13        2.15477   0.00001   0.00000   0.00007   0.00007   2.15484
   A14        2.09261   0.00000   0.00000  -0.00000  -0.00000   2.09261
   A15        2.03580  -0.00001   0.00000  -0.00006  -0.00006   2.03574
   A16        2.08419   0.00000   0.00000   0.00002   0.00002   2.08421
   A17        2.13875   0.00001   0.00000   0.00008   0.00008   2.13884
   A18        2.06024  -0.00001   0.00000  -0.00010  -0.00010   2.06014
    D1       -0.00000   0.00000   0.00000   0.00000   0.00000   0.00000
    D2        3.14159  -0.00000   0.00000  -0.00000   0.00000   3.14159
    D3        3.14159   0.00000   0.00000   0.00000   0.00000   3.14159
    D4        0.00000   0.00000   0.00000  -0.00000  -0.00000   0.00000
    D5       -0.00000   0.00000   0.00000   0.00000   0.00000   0.00000
    D6        3.14159  -0.00000   0.00000   0.00000   0.00000   3.14159
    D7        3.14159  -0.00000   0.00000  -0.00000   0.00000   3.14159
    D8        0.00000  -0.00000   0.00000  -0.00000  -0.00000   0.00000
    D9        0.00000  -0.00000   0.00000  -0.00000  -0.00000   0.00000
   D10        3.14159   0.00000   0.00000   0.00000   0.00000   3.14159
   D11       -3.14159  -0.00000   0.00000  -0.00000  -0.00000   3.14159
   D12       -0.00000   0.00000   0.00000   0.00000   0.00000   0.00000
   D13       -0.00000   0.00000   0.00000   0.00000   0.00000   0.00000
   D14        3.14159   0.00000   0.00000   0.00000   0.00000  -3.14159
   D15       -3.14159  -0.00000   0.00000  -0.00000  -0.00000   3.14159
   D16        0.00000  -0.00000   0.00000  -0.00000  -0.00000   0.00000
   D17        0.00000  -0.00000   0.00000  -0.00000  -0.00000   0.00000
   D18        3.14159   0.00000   0.00000   0.00000   0.00000   3.14159
   D19        3.14159  -0.00000   0.00000  -0.00000   0.00000   3.14159
   D20       -0.00000   0.00000   0.00000   0.00000   0.00000   0.00000
   D21       -0.00000   0.00000   0.00000   0.00000   0.00000   0.00000
   D22        3.14159   0.00000   0.00000   0.00000   0.00000   3.14159
   D23       -3.14159  -0.00000   0.00000  -0.00000  -0.00000   3.14159
   D24        0.00000  -0.00000   0.00000  -0.00000  -0.00000   0.00000
         Item               Value     Threshold  Converged?
 Maximum Force            0.000025     0.000450     YES
 RMS     Force            0.000008     0.000300     YES
 Maximum Displacement     0.000205     0.001800     YES
 RMS     Displacement     0.000058     0.001200     YES
 Predicted change in Energy=-8.010345D-09
 Optimization completed.
    -- Stationary point found.
                           ----------------------------
                           !   Optimized Parameters   !
                           ! (Angstroms and Degrees)  !
 --------------------------                            --------------------------
 ! Name  Definition              Value          Derivative Info.                !
 --------------------------------------------------------------------------------
 ! R1    R(1,2)                  1.3845         -DE/DX =    0.0                 !
 ! R2    R(1,6)                  1.3845         -DE/DX =    0.0                 !
 ! R3    R(1,7)                  1.0835         -DE/DX =    0.0                 !
 ! R4    R(2,3)                  1.441          -DE/DX =    0.0                 !
 ! R5    R(2,8)                  1.0857         -DE/DX =    0.0                 !
 ! R6    R(3,4)                  1.3796         -DE/DX =    0.0                 !
 ! R7    R(3,11)                 1.2947         -DE/DX =    0.0                 !
 ! R8    R(4,5)                  1.3796         -DE/DX =    0.0                 !
 ! R9    R(4,9)                  1.0838         -DE/DX =    0.0                 !
 ! R10   R(5,6)                  1.441          -DE/DX =    0.0                 !
 ! R11   R(5,12)                 1.2947         -DE/DX =    0.0                 !
 ! R12   R(6,10)                 1.0857         -DE/DX =    0.0                 !
 ! A1    A(2,1,6)              118.9814         -DE/DX =    0.0                 !
 ! A2    A(2,1,7)              120.5093         -DE/DX =    0.0                 !
 ! A3    A(6,1,7)              120.5094         -DE/DX =    0.0                 !
 ! A4    A(1,2,3)              119.4155         -DE/DX =    0.0                 !
 ! A5    A(1,2,8)              122.5406         -DE/DX =    0.0                 !
 ! A6    A(3,2,8)              118.0439         -DE/DX =    0.0                 !
 ! A7    A(2,3,4)              123.4592         -DE/DX =    0.0                 !
 ! A8    A(2,3,11)             116.6418         -DE/DX =    0.0                 !
 ! A9    A(4,3,11)             119.899          -DE/DX =    0.0                 !
 ! A10   A(3,4,5)              115.2692         -DE/DX =    0.0                 !
 ! A11   A(3,4,9)              122.3657         -DE/DX =    0.0                 !
 ! A12   A(5,4,9)              122.3652         -DE/DX =    0.0                 !
 ! A13   A(4,5,6)              123.4594         -DE/DX =    0.0                 !
 ! A14   A(4,5,12)             119.8978         -DE/DX =    0.0                 !
 ! A15   A(6,5,12)             116.6428         -DE/DX =    0.0                 !
 ! A16   A(1,6,5)              119.4153         -DE/DX =    0.0                 !
 ! A17   A(1,6,10)             122.5416         -DE/DX =    0.0                 !
 ! A18   A(5,6,10)             118.0431         -DE/DX =    0.0                 !
 ! D1    D(6,1,2,3)              0.0            -DE/DX =    0.0                 !
 ! D2    D(6,1,2,8)            180.0            -DE/DX =    0.0                 !
 ! D3    D(7,1,2,3)            180.0            -DE/DX =    0.0                 !
 ! D4    D(7,1,2,8)              0.0            -DE/DX =    0.0                 !
 ! D5    D(2,1,6,5)              0.0            -DE/DX =    0.0                 !
 ! D6    D(2,1,6,10)           180.0            -DE/DX =    0.0                 !
 ! D7    D(7,1,6,5)            180.0            -DE/DX =    0.0                 !
 ! D8    D(7,1,6,10)             0.0            -DE/DX =    0.0                 !
 ! D9    D(1,2,3,4)              0.0            -DE/DX =    0.0                 !
 ! D10   D(1,2,3,11)           180.0            -DE/DX =    0.0                 !
 ! D11   D(8,2,3,4)            180.0            -DE/DX =    0.0                 !
 ! D12   D(8,2,3,11)             0.0            -DE/DX =    0.0                 !
 ! D13   D(2,3,4,5)              0.0            -DE/DX =    0.0                 !
 ! D14   D(2,3,4,9)           -180.0            -DE/DX =    0.0                 !
 ! D15   D(11,3,4,5)           180.0            -DE/DX =    0.0                 !
 ! D16   D(11,3,4,9)             0.0            -DE/DX =    0.0                 !
 ! D17   D(3,4,5,6)              0.0            -DE/DX =    0.0                 !
 ! D18   D(3,4,5,12)           180.0            -DE/DX =    0.0                 !
 ! D19   D(9,4,5,6)            180.0            -DE/DX =    0.0                 !
 ! D20   D(9,4,5,12)             0.0            -DE/DX =    0.0                 !
 ! D21   D(4,5,6,1)              0.0            -DE/DX =    0.0                 !
 ! D22   D(4,5,6,10)           180.0            -DE/DX =    0.0                 !
 ! D23   D(12,5,6,1)           180.0            -DE/DX =    0.0                 !
 ! D24   D(12,5,6,10)            0.0            -DE/DX =    0.0                 !
 --------------------------------------------------------------------------------
 GradGradGradGradGradGradGradGradGradGradGradGradGradGradGradGradGradGrad

 Leave Link  103 at Wed Jan 29 15:59:41 2025, MaxMem=   104857600 cpu:               0.0 elap:               0.0
 (Enter /sw/cluster/pub/apps//g16/l9999.exe)

 ----------------------------------------------------------------------

 Electric dipole moment (input orientation):
 (Debye = 10**-18 statcoulomb cm , SI units = C m)
                  (au)            (Debye)         (10**-30 SI)
   Tot        0.380455D+00      0.967020D+00      0.322563D+01
   x          0.329477D+00      0.837446D+00      0.279342D+01
   y          0.190240D+00      0.483542D+00      0.161292D+01
   z          0.000000D+00      0.000000D+00      0.000000D+00

 Dipole polarizability, Alpha (input orientation).
 (esu units = cm**3 , SI units = C**2 m**2 J**-1)
 Alpha(0;0):
               (au)            (10**-24 esu)      (10**-40 SI)
   iso        0.617639D+02      0.915247D+01      0.101835D+02
   aniso      0.466692D+02      0.691567D+01      0.769472D+01
   xx         0.726523D+02      0.107660D+02      0.119787D+02
   yx        -0.688613D+01     -0.102042D+01     -0.113537D+01
   yy         0.806029D+02      0.119441D+02      0.132896D+02
   zx         0.000000D+00      0.000000D+00      0.000000D+00
   zy         0.000000D+00      0.000000D+00      0.000000D+00
   zz         0.320366D+02      0.474734D+01      0.528213D+01

 ----------------------------------------------------------------------

 Dipole orientation:
     6          0.00005131         -0.00008870          2.68888048
     6          1.12710870         -1.95203843          1.36057621
     6          1.10106035         -1.90692552         -1.36208437
     6         -0.00005275          0.00009119         -2.75757820
     6         -1.10111348          1.90701729         -1.36189903
     6         -1.12705599          1.95194729          1.36076351
     1          0.00009361         -0.00016183          4.73638894
     1          2.04160011         -3.53584521          2.29032821
     1         -0.00009913          0.00017143         -4.80557902
     1         -2.04151817          3.53570355          2.29063447
     9          2.18389806         -3.78229111         -2.50084208
     9         -2.18398329          3.78243850         -2.50052344

 Electric dipole moment (dipole orientation):
 (Debye = 10**-18 statcoulomb cm , SI units = C m)
                  (au)            (Debye)         (10**-30 SI)
   Tot        0.380455D+00      0.967020D+00      0.322563D+01
   x          0.000000D+00      0.000000D+00      0.000000D+00
   y          0.000000D+00      0.000000D+00      0.000000D+00
   z          0.380455D+00      0.967020D+00      0.322563D+01

 Dipole polarizability, Alpha (dipole orientation).
 (esu units = cm**3 , SI units = C**2 m**2 J**-1)
 Alpha(0;0):
               (au)            (10**-24 esu)      (10**-40 SI)
   iso        0.617639D+02      0.915247D+01      0.101835D+02
   aniso      0.466692D+02      0.691567D+01      0.769472D+01
   xx         0.451739D+02      0.669408D+01      0.744817D+01
   yx        -0.227524D+02     -0.337156D+01     -0.375137D+01
   yy         0.714415D+02      0.105865D+02      0.117791D+02
   zx        -0.120865D-03     -0.179104D-04     -0.199280D-04
   zy         0.211534D-03      0.313461D-04      0.348772D-04
   zz         0.686764D+02      0.101768D+02      0.113232D+02

 ----------------------------------------------------------------------
 1\1\GINC-N11\Freq\UPBE1PBE\6-311++G(d,p)\C6H4F2(1+,2)\UNKNOWN\29-Jan-2
 025\0\\#P Geom=AllCheck Guess=TCheck SCRF=Check GenChk UPBE1PBE/6-311+
 +G(d,p) Freq\\1 3-DFB SP\\1,2\C,1.2322627096,0.7114469232,-0.000000003
 7\C,1.2199526658,-0.6729576471,0.0000000006\C,-0.0415475131,-1.3695171
 95,0.0000000117\C,-1.2637456373,-0.7296234352,0.0000000022\C,-1.206802
 7879,0.648783461,0.0000000095\C,0.0271859147,1.3929921925,0.0000000014
 \H,2.1705985463,1.2531912148,-0.0000000063\H,2.1299589278,-1.265054151
 5,0.0000000039\H,-2.2023092728,-1.2714942512,-0.0000000044\H,-0.030593
 8724,2.4771293298,0.0000000002\F,0.0096060343,-2.6632400452,-0.0000000
 092\F,-2.301631207,1.3399267861,-0.000000007\\Version=ES64L-G16RevA.03
 \HF=-430.0403409\S2=0.771105\S2-1=0.\S2A=0.750197\RMSD=3.548e-09\RMSF=
 1.535e-05\ZeroPoint=0.083375\Thermal=0.0896131\Dipole=0.940599,0.54307
 48,0.\DipoleDeriv=-0.0730995,0.3023932,0.,0.302418,-0.4223457,0.,0.,0.
 ,-0.0657507,0.0745026,-0.3495368,0.,-0.1712587,0.2005901,0.,0.,0.,0.05
 69841,0.6206943,-0.2129273,0.,-0.2875822,1.8998627,0.,0.,0.,0.2773588,
 -0.3797736,0.4219832,0.,0.4220285,-0.867093,0.,0.,0.,-0.1244586,1.3634
 498,-0.7163358,0.,-0.6417239,1.1573174,0.,0.,0.,0.2774154,-0.0565296,-
 0.0956222,0.,-0.2739105,0.3314721,0.,0.,0.,0.0569252,0.1309374,0.00722
 43,0.,0.007223,0.1225925,0.,0.,0.,0.1593456,0.1566138,-0.0207713,0.,-0
 .0364775,0.1235042,0.,0.,0.,0.1490442,0.1803704,0.0370724,0.,0.0370603
 ,0.1375889,0.,0.,0.,0.2007172,0.1069902,-0.0078237,0.,0.0078774,0.1731
 135,0.,0.,0.,0.1490438,-0.1522188,0.0186226,0.,0.142469,-1.3381431,0.,
 0.,0.,-0.0683158,-0.9719368,0.6157214,0.,0.4918766,-0.5184598,0.,0.,0.
 ,-0.0683093\Polar=72.6522877,-6.8861321,80.6028774,0.,0.,32.0366433\Qu
 adrupole=3.5579848,2.3052868,-5.8632715,1.0846874,0.,0.\PG=C01 [X(C6H4
 F2)]\NImag=0\\0.71098559,0.11232658,0.58126853,0.,0.,0.10783670,-0.128
 18050,0.02184603,0.,0.65553365,-0.07030489,-0.30867690,0.,-0.07155263,
 0.69519047,0.,0.,-0.04750025,0.,0.,0.12047480,-0.01941565,0.02175389,0
 .,-0.25985495,-0.07182617,0.,0.67014894,-0.02211851,-0.03622724,0.,-0.
 06657379,-0.12353579,0.,-0.04048397,0.73060991,0.,0.,-0.00254052,0.,0.
 ,-0.06352635,0.,0.,0.15382178,0.01774590,-0.02694019,0.,-0.02630662,0.
 01882256,0.,-0.32215035,0.10017410,0.,0.76411697,-0.02694248,0.0488466
 2,0.,-0.01326096,-0.00446997,0.,0.02064668,-0.12509204,0.,0.06726255,0
 .68643276,0.,0.,0.00857455,0.,0.,0.00359540,0.,0.,-0.05532761,0.,0.,0.
 09847199,-0.03219202,-0.01475771,0.,-0.01933608,-0.00851187,0.,0.03841
 521,0.04243032,0.,-0.12205069,-0.01535608,0.,0.68041824,0.02913377,-0.
 02346813,0.,-0.00977314,0.00853159,0.,0.11166893,-0.05057592,0.,-0.094
 90091,-0.32518982,0.,-0.04639304,0.72031667,0.,0.,-0.00253452,0.,0.,0.
 00221339,0.,0.,-0.01231245,0.,0.,-0.05532615,0.,0.,0.15381376,-0.28455
 214,0.01999384,0.,0.03205851,0.09043874,0.,-0.00636533,-0.01600466,0.,
 -0.00751490,0.00797102,0.,-0.21753158,-0.09626111,0.,0.62330986,0.1121
 2725,-0.15233912,0.,0.03871765,-0.04252065,0.,-0.01725825,-0.00445438,
 0.,-0.02410050,-0.02324393,0.,-0.09101702,-0.16584896,0.,-0.05296134,0
 .72742881,0.,0.,-0.04750255,0.,0.,-0.00262307,0.,0.,0.00221754,0.,0.,0
 .00358993,0.,0.,-0.06352637,0.,0.,0.12047686,-0.28056399,-0.12804286,0
 .,0.00636476,0.00275603,0.,0.00044493,0.00156848,0.,0.00067991,-0.0005
 9130,0.,-0.00115122,0.00416430,0.,-0.01708267,-0.01348403,0.,0.2905483
 6,-0.12804251,-0.13271375,0.,-0.02702117,-0.01088886,0.,0.00324290,-0.
 00446045,0.,-0.00059150,0.00136339,0.,0.00248982,-0.00286524,0.,0.0162
 9309,0.01255843,0.,0.13400596,0.13581188,0.,0.,-0.03859103,0.,0.,0.002
 76622,0.,0.,0.00852194,0.,0.,-0.00214882,0.,0.,0.00852267,0.,0.,0.0027
 6583,0.,0.,0.02697038,0.00943290,-0.00523658,0.,-0.26618675,0.13387919
 ,0.,-0.01754606,0.01569767,0.,-0.00307249,-0.00227008,0.,-0.00075710,-
 0.00196385,0.,0.00010491,-0.00116084,0.,0.00055282,0.00010005,0.,0.274
 77548,0.02387581,-0.00606079,0.,0.13393768,-0.14508818,0.,-0.01689868,
 0.01277678,0.,-0.00282608,-0.00301443,0.,-0.00009445,-0.00060941,0.,0.
 00039372,-0.00608681,0.,-0.00003554,0.00101772,0.,-0.14061480,0.145667
 20,0.,0.,0.00945696,0.,0.,-0.03732128,0.,0.,0.00591609,0.,0.,0.0020925
 2,0.,0.,-0.00143742,0.,0.,0.00729465,0.,0.,-0.00390014,0.,0.,0.0209171
 4,0.00071329,-0.00047613,0.,-0.00187836,0.00383659,0.,-0.01629014,-0.0
 1410252,0.,-0.28054166,-0.12859605,0.,0.00695614,0.00137942,0.,0.00029
 018,0.00211072,0.,-0.00002118,-0.00007734,0.,-0.00051488,-0.00065136,0
 .,0.28881956,-0.00047623,0.00126375,0.,0.00336174,-0.00314408,0.,0.014
 79913,0.01430204,0.,-0.12859630,-0.13205014,0.,-0.02752394,-0.00894377
 ,0.,0.00258510,-0.00531107,0.,-0.00007735,0.00006815,0.,0.00072732,0.0
 0068158,0.,0.13758778,0.12994321,0.,0.,-0.00167449,0.,0.,0.00606399,0.
 ,0.,0.00373790,0.,0.,-0.03237471,0.,0.,0.00373864,0.,0.,0.00606338,0.,
 0.,-0.00049523,0.,0.,0.00024267,0.,0.,0.02330983,0.00588381,0.02592462
 ,0.,-0.00487114,0.00326631,0.,-0.00153800,0.00035649,0.,-0.00523523,-0
 .00157701,0.,0.00467757,-0.02972894,0.,-0.05940052,0.01455174,0.,0.000
 92960,-0.00025298,0.,0.00038469,0.00122828,0.,0.00041538,-0.00118844,0
 .,0.05617269,-0.00318630,-0.00251181,0.,0.00171187,-0.00111125,0.,-0.0
 0151335,0.00017150,0.,-0.00102133,-0.00085053,0.,0.00286479,-0.0094440
 3,0.,0.01448883,-0.35187506,0.,-0.00011750,0.00064112,0.,-0.00018116,-
 0.00021989,0.,0.00019024,-0.00024856,0.,-0.01440292,0.36426762,0.,0.,0
 .00945654,0.,0.,0.00729523,0.,0.,-0.00143770,0.,0.,0.00209248,0.,0.,0.
 00591615,0.,0.,-0.03731662,0.,0.,-0.00390057,0.,0.,-0.00190236,0.,0.,0
 .00024281,0.,0.,0.02091189,-0.00353667,-0.00602012,0.,0.00890429,-0.03
 973433,0.,-0.08122456,0.01177121,0.,0.00452697,0.05387910,0.,-0.009617
 20,-0.00858597,0.,-0.00094633,0.00263776,0.,0.00046877,-0.00161661,0.,
 0.00248842,0.00167238,0.,0.00244026,-0.00167045,0.,0.00031366,0.000129
 68,0.,0.07738411,-0.01620569,0.01891764,0.,-0.01131717,-0.05666008,0.,
 -0.00111583,-0.41619491,0.,0.02456178,-0.07372851,0.,0.00171589,0.0276
 7688,0.,0.01164293,-0.00292472,0.,0.00052419,-0.00108568,0.,0.00090750
 ,0.00070494,0.,-0.00116216,0.00030552,0.,0.00002699,0.00025554,0.,-0.0
 1691941,0.51074663,0.,0.,0.00250911,0.,0.,0.00993937,0.,0.,-0.04789084
 ,0.,0.,0.01337998,0.,0.,0.00882075,0.,0.,-0.00137768,0.,0.,-0.00025557
 ,0.,0.,-0.00168697,0.,0.,-0.00442709,0.,0.,0.00032807,0.,0.,0.02264648
 ,0.00367948,-0.02037137,0.,0.00375320,0.00893047,0.,0.01537596,-0.0127
 1484,0.,-0.02019780,0.03883462,0.,-0.32783127,0.14126052,0.,-0.0623700
 0,0.02983687,0.,-0.00117010,0.00147031,0.,0.00033805,0.00001303,0.,-0.
 00038859,0.00047164,0.,0.00226748,0.00103716,0.,-0.00120173,0.00734098
 ,0.,0.38774533,-0.01018681,0.01170122,0.,-0.00007611,-0.00762629,0.,-0
 .02301528,0.00268050,0.,0.06815583,-0.04900341,0.,0.15415330,-0.169579
 85,0.,0.00141984,0.01461746,0.,-0.00067039,0.00055330,0.,0.00011559,0.
 00023128,0.,-0.00003919,0.00313337,0.,0.00179586,0.00092537,0.,0.00445
 675,-0.00801325,0.,-0.19610940,0.20038031,0.,0.,0.00250950,0.,0.,-0.00
 137746,0.,0.,0.00882022,0.,0.,0.01338044,0.,0.,-0.04788845,0.,0.,0.009
 93811,0.,0.,-0.00025568,0.,0.,0.00032814,0.,0.,-0.00442770,0.,0.,-0.00
 168593,0.,0.,-0.00198560,0.,0.,0.02264440\\0.00000410,0.00000821,0.,0.
 00000953,0.00000611,0.,-0.00003790,-0.00003441,0.,0.00004390,0.0000200
 4,0.,-0.00004787,-0.00000999,0.,0.00001336,0.00000318,0.,-0.00000299,-
 0.00000170,0.,0.00000891,0.00000679,0.,-0.00000686,-0.00000370,0.,0.00
 000888,0.00000414,0.,-0.00000325,0.00001350,0.,0.00001018,-0.00001217,
 0.\\\@


 THE THINKER DIES, BUT HIS THOUGHTS ARE BEYOND THE 
 REACH OF DESTRUCTION.  MEN ARE MORTAL; BUT IDEAS 
 ARE IMMORTAL.
                              -- WALTER LIPPMANN
 Job cpu time:       0 days  0 hours  6 minutes  2.2 seconds.
 Elapsed time:       0 days  0 hours  6 minutes  3.0 seconds.
 File lengths (MBytes):  RWF=    112 Int=      0 D2E=      0 Chk=      6 Scr=      1
 Normal termination of Gaussian 16 at Wed Jan 29 15:59:41 2025.
