1 3-DFB SP                                                              
SP        RPBE1PBE                                                    6-311++G(d,p)       
Number of atoms                            I               12
Info1-9                                    I   N=           9
          19          19           0           0           0         110
           1          18        -302
Full Title                                 C   N=           1
1 3-DFB SP  
Route                                      C   N=           4
#p PBE1PBE/6-311++G(d,p) density=current nosymm 
Charge                                     I                0
Multiplicity                               I                1
Number of electrons                        I               58
Number of alpha electrons                  I               29
Number of beta electrons                   I               29
Number of basis functions                  I              204
Number of independent functions            I              204
Number of point charges in /Mol/           I                0
Number of translation vectors              I                0
Atomic numbers                             I   N=          12
           6           6           6           6           6           6
           1           1           1           1           9           9
Nuclear charges                            R   N=          12
  6.00000000E+00  6.00000000E+00  6.00000000E+00  6.00000000E+00  6.00000000E+00
  6.00000000E+00  1.00000000E+00  1.00000000E+00  1.00000000E+00  1.00000000E+00
  9.00000000E+00  9.00000000E+00
Current cartesian coordinates              R   N=          36
  2.26286809E+00  1.30654538E+00 -1.88972612E-09  2.28895274E+00 -1.32020513E+00
  0.00000000E+00 -3.90811992E-03 -2.57725787E+00  1.88972612E-09 -2.30174809E+00
 -1.32898157E+00  0.00000000E+00 -2.23377607E+00  1.28523914E+00  1.88972612E-09
  1.17514131E-03  2.64258656E+00  0.00000000E+00  4.03773873E+00  2.33112571E+00
 -1.88972612E-09  4.03572837E+00 -2.38670022E+00  1.88972612E-09 -4.07352801E+00
 -2.35162978E+00 -1.88972612E-09 -4.89214699E-02  4.68856356E+00  0.00000000E+00
 -1.59359754E-02 -5.11116496E+00  0.00000000E+00 -4.43442872E+00  2.54141204E+00
 -1.88972612E-09
Number of symbols in /Mol/                 I                0
Force Field                                I                0
Atom Types                                 C   N=          12
                                                            
                                                            
                        
Int Atom Types                             I   N=          12
           0           0           0           0           0           0
           0           0           0           0           0           0
MM charges                                 R   N=          12
  0.00000000E+00  0.00000000E+00  0.00000000E+00  0.00000000E+00  0.00000000E+00
  0.00000000E+00  0.00000000E+00  0.00000000E+00  0.00000000E+00  0.00000000E+00
  0.00000000E+00  0.00000000E+00
Integer atomic weights                     I   N=          12
          12          12          12          12          12          12
           1           1           1           1          19          19
Real atomic weights                        R   N=          12
  1.20000000E+01  1.20000000E+01  1.20000000E+01  1.20000000E+01  1.20000000E+01
  1.20000000E+01  1.00782504E+00  1.00782504E+00  1.00782504E+00  1.00782504E+00
  1.89984032E+01  1.89984032E+01
Atom fragment info                         I   N=          12
           0           0           0           0           0           0
           0           0           0           0           0           0
Atom residue num                           I   N=          12
           0           0           0           0           0           0
           0           0           0           0           0           0
Nuclear spins                              I   N=          12
           0           0           0           0           0           0
           1           1           1           1           1           1
Nuclear ZEff                               R   N=          12
 -3.60000000E+00 -3.60000000E+00 -3.60000000E+00 -3.60000000E+00 -3.60000000E+00
 -3.60000000E+00 -1.00000000E+00 -1.00000000E+00 -1.00000000E+00 -1.00000000E+00
 -6.75000000E+00 -6.75000000E+00
Nuclear ZNuc                               R   N=          12
  6.00000000E+00  6.00000000E+00  6.00000000E+00  6.00000000E+00  6.00000000E+00
  6.00000000E+00  1.00000000E+00  1.00000000E+00  1.00000000E+00  1.00000000E+00
  9.00000000E+00  9.00000000E+00
Nuclear QMom                               R   N=          12
  0.00000000E+00  0.00000000E+00  0.00000000E+00  0.00000000E+00  0.00000000E+00
  0.00000000E+00  0.00000000E+00  0.00000000E+00  0.00000000E+00  0.00000000E+00
  0.00000000E+00  0.00000000E+00
Nuclear GFac                               R   N=          12
  0.00000000E+00  0.00000000E+00  0.00000000E+00  0.00000000E+00  0.00000000E+00
  0.00000000E+00  2.79284600E+00  2.79284600E+00  2.79284600E+00  2.79284600E+00
  2.62886700E+00  2.62886700E+00
MicOpt                                     I   N=          12
          -1          -1          -1          -1          -1          -1
          -1          -1          -1          -1          -1          -1
Number of residues                         I                0
Number of secondary structures             I                0
SymInf integers                            I   N=          26
           1           2           1           1           1           1
           1          -1           0           0           0           0
           0           0           0           0           0           0
           0           0           0           0           0           0
           0           0
RotTr to input orientation                 R   N=          12
  5.00011169E-01 -8.66018956E-01 -1.22464680E-16 -8.66018956E-01 -5.00011169E-01
  0.00000000E+00 -6.12337077E-17  1.06056734E-16 -1.00000000E+00 -6.21049697E-01
 -3.58600998E-01 -1.30325940E-10
Number of contracted shells                I               68
Number of primitive shells                 I              132
Pure/Cartesian d shells                    I                0
Pure/Cartesian f shells                    I                0
Highest angular momentum                   I                2
Largest degree of contraction              I                6
Shell types                                I   N=          68
           0          -1          -1          -1          -1          -2
           0          -1          -1          -1          -1          -2
           0          -1          -1          -1          -1          -2
           0          -1          -1          -1          -1          -2
           0          -1          -1          -1          -1          -2
           0          -1          -1          -1          -1          -2
           0           0           0           0           1           0
           0           0           0           1           0           0
           0           0           1           0           0           0
           0           1           0          -1          -1          -1
          -1          -2           0          -1          -1          -1
          -1          -2
Number of primitives per shell             I   N=          68
           6           3           1           1           1           1
           6           3           1           1           1           1
           6           3           1           1           1           1
           6           3           1           1           1           1
           6           3           1           1           1           1
           6           3           1           1           1           1
           3           1           1           1           1           3
           1           1           1           1           3           1
           1           1           1           3           1           1
           1           1           6           3           1           1
           1           1           6           3           1           1
           1           1
Shell to atom map                          I   N=          68
           1           1           1           1           1           1
           2           2           2           2           2           2
           3           3           3           3           3           3
           4           4           4           4           4           4
           5           5           5           5           5           5
           6           6           6           6           6           6
           7           7           7           7           7           8
           8           8           8           8           9           9
           9           9           9          10          10          10
          10          10          11          11          11          11
          11          11          12          12          12          12
          12          12
Primitive exponents                        R   N=         132
  4.56324000E+03  6.82024000E+02  1.54973000E+02  4.44553000E+01  1.30290000E+01
  1.82773000E+00  2.09642000E+01  4.80331000E+00  1.45933000E+00  4.83456000E-01
  1.45585000E-01  4.38000000E-02  6.26000000E-01  4.56324000E+03  6.82024000E+02
  1.54973000E+02  4.44553000E+01  1.30290000E+01  1.82773000E+00  2.09642000E+01
  4.80331000E+00  1.45933000E+00  4.83456000E-01  1.45585000E-01  4.38000000E-02
  6.26000000E-01  4.56324000E+03  6.82024000E+02  1.54973000E+02  4.44553000E+01
  1.30290000E+01  1.82773000E+00  2.09642000E+01  4.80331000E+00  1.45933000E+00
  4.83456000E-01  1.45585000E-01  4.38000000E-02  6.26000000E-01  4.56324000E+03
  6.82024000E+02  1.54973000E+02  4.44553000E+01  1.30290000E+01  1.82773000E+00
  2.09642000E+01  4.80331000E+00  1.45933000E+00  4.83456000E-01  1.45585000E-01
  4.38000000E-02  6.26000000E-01  4.56324000E+03  6.82024000E+02  1.54973000E+02
  4.44553000E+01  1.30290000E+01  1.82773000E+00  2.09642000E+01  4.80331000E+00
  1.45933000E+00  4.83456000E-01  1.45585000E-01  4.38000000E-02  6.26000000E-01
  4.56324000E+03  6.82024000E+02  1.54973000E+02  4.44553000E+01  1.30290000E+01
  1.82773000E+00  2.09642000E+01  4.80331000E+00  1.45933000E+00  4.83456000E-01
  1.45585000E-01  4.38000000E-02  6.26000000E-01  3.38650000E+01  5.09479000E+00
  1.15879000E+00  3.25840000E-01  1.02741000E-01  3.60000000E-02  7.50000000E-01
  3.38650000E+01  5.09479000E+00  1.15879000E+00  3.25840000E-01  1.02741000E-01
  3.60000000E-02  7.50000000E-01  3.38650000E+01  5.09479000E+00  1.15879000E+00
  3.25840000E-01  1.02741000E-01  3.60000000E-02  7.50000000E-01  3.38650000E+01
  5.09479000E+00  1.15879000E+00  3.25840000E-01  1.02741000E-01  3.60000000E-02
  7.50000000E-01  1.14271000E+04  1.72235000E+03  3.95746000E+02  1.15139000E+02
  3.36026000E+01  4.91901000E+00  5.54441000E+01  1.26323000E+01  3.71756000E+00
  1.16545000E+00  3.21892000E-01  1.07600000E-01  1.75000000E+00  1.14271000E+04
  1.72235000E+03  3.95746000E+02  1.15139000E+02  3.36026000E+01  4.91901000E+00
  5.54441000E+01  1.26323000E+01  3.71756000E+00  1.16545000E+00  3.21892000E-01
  1.07600000E-01  1.75000000E+00
Contraction coefficients                   R   N=         132
  1.96665025E-03  1.52306019E-02  7.61269097E-02  2.60801033E-01  6.16462078E-01
  2.21006028E-01  1.14660081E-01  9.19999648E-01 -3.03068213E-03  1.00000000E+00
  1.00000000E+00  1.00000000E+00  1.00000000E+00  1.96665025E-03  1.52306019E-02
  7.61269097E-02  2.60801033E-01  6.16462078E-01  2.21006028E-01  1.14660081E-01
  9.19999648E-01 -3.03068213E-03  1.00000000E+00  1.00000000E+00  1.00000000E+00
  1.00000000E+00  1.96665025E-03  1.52306019E-02  7.61269097E-02  2.60801033E-01
  6.16462078E-01  2.21006028E-01  1.14660081E-01  9.19999648E-01 -3.03068213E-03
  1.00000000E+00  1.00000000E+00  1.00000000E+00  1.00000000E+00  1.96665025E-03
  1.52306019E-02  7.61269097E-02  2.60801033E-01  6.16462078E-01  2.21006028E-01
  1.14660081E-01  9.19999648E-01 -3.03068213E-03  1.00000000E+00  1.00000000E+00
  1.00000000E+00  1.00000000E+00  1.96665025E-03  1.52306019E-02  7.61269097E-02
  2.60801033E-01  6.16462078E-01  2.21006028E-01  1.14660081E-01  9.19999648E-01
 -3.03068213E-03  1.00000000E+00  1.00000000E+00  1.00000000E+00  1.00000000E+00
  1.96665025E-03  1.52306019E-02  7.61269097E-02  2.60801033E-01  6.16462078E-01
  2.21006028E-01  1.14660081E-01  9.19999648E-01 -3.03068213E-03  1.00000000E+00
  1.00000000E+00  1.00000000E+00  1.00000000E+00  2.54938145E-02  1.90373109E-01
  8.52161486E-01  1.00000000E+00  1.00000000E+00  1.00000000E+00  1.00000000E+00
  2.54938145E-02  1.90373109E-01  8.52161486E-01  1.00000000E+00  1.00000000E+00
  1.00000000E+00  1.00000000E+00  2.54938145E-02  1.90373109E-01  8.52161486E-01
  1.00000000E+00  1.00000000E+00  1.00000000E+00  1.00000000E+00  2.54938145E-02
  1.90373109E-01  8.52161486E-01  1.00000000E+00  1.00000000E+00  1.00000000E+00
  1.00000000E+00  1.80093016E-03  1.37419012E-02  6.81334059E-02  2.33325020E-01
  5.89086051E-01  2.99505026E-01  1.14536016E-01  9.20512125E-01 -3.37804046E-03
  1.00000000E+00  1.00000000E+00  1.00000000E+00  1.00000000E+00  1.80093016E-03
  1.37419012E-02  6.81334059E-02  2.33325020E-01  5.89086051E-01  2.99505026E-01
  1.14536016E-01  9.20512125E-01 -3.37804046E-03  1.00000000E+00  1.00000000E+00
  1.00000000E+00  1.00000000E+00
P(S=P) Contraction coefficients            R   N=         132
  0.00000000E+00  0.00000000E+00  0.00000000E+00  0.00000000E+00  0.00000000E+00
  0.00000000E+00  4.02486927E-02  2.37593957E-01  8.15853851E-01  1.00000000E+00
  1.00000000E+00  1.00000000E+00  0.00000000E+00  0.00000000E+00  0.00000000E+00
  0.00000000E+00  0.00000000E+00  0.00000000E+00  0.00000000E+00  4.02486927E-02
  2.37593957E-01  8.15853851E-01  1.00000000E+00  1.00000000E+00  1.00000000E+00
  0.00000000E+00  0.00000000E+00  0.00000000E+00  0.00000000E+00  0.00000000E+00
  0.00000000E+00  0.00000000E+00  4.02486927E-02  2.37593957E-01  8.15853851E-01
  1.00000000E+00  1.00000000E+00  1.00000000E+00  0.00000000E+00  0.00000000E+00
  0.00000000E+00  0.00000000E+00  0.00000000E+00  0.00000000E+00  0.00000000E+00
  4.02486927E-02  2.37593957E-01  8.15853851E-01  1.00000000E+00  1.00000000E+00
  1.00000000E+00  0.00000000E+00  0.00000000E+00  0.00000000E+00  0.00000000E+00
  0.00000000E+00  0.00000000E+00  0.00000000E+00  4.02486927E-02  2.37593957E-01
  8.15853851E-01  1.00000000E+00  1.00000000E+00  1.00000000E+00  0.00000000E+00
  0.00000000E+00  0.00000000E+00  0.00000000E+00  0.00000000E+00  0.00000000E+00
  0.00000000E+00  4.02486927E-02  2.37593957E-01  8.15853851E-01  1.00000000E+00
  1.00000000E+00  1.00000000E+00  0.00000000E+00  0.00000000E+00  0.00000000E+00
  0.00000000E+00  0.00000000E+00  0.00000000E+00  0.00000000E+00  0.00000000E+00
  0.00000000E+00  0.00000000E+00  0.00000000E+00  0.00000000E+00  0.00000000E+00
  0.00000000E+00  0.00000000E+00  0.00000000E+00  0.00000000E+00  0.00000000E+00
  0.00000000E+00  0.00000000E+00  0.00000000E+00  0.00000000E+00  0.00000000E+00
  0.00000000E+00  0.00000000E+00  0.00000000E+00  0.00000000E+00  0.00000000E+00
  0.00000000E+00  0.00000000E+00  0.00000000E+00  0.00000000E+00  0.00000000E+00
  0.00000000E+00  0.00000000E+00  3.54608874E-02  2.37450915E-01  8.20457708E-01
  1.00000000E+00  1.00000000E+00  1.00000000E+00  0.00000000E+00  0.00000000E+00
  0.00000000E+00  0.00000000E+00  0.00000000E+00  0.00000000E+00  0.00000000E+00
  3.54608874E-02  2.37450915E-01  8.20457708E-01  1.00000000E+00  1.00000000E+00
  1.00000000E+00  0.00000000E+00
Coordinates of each shell                  R   N=         204
  2.26286809E+00  1.30654538E+00 -1.88972612E-09  2.26286809E+00  1.30654538E+00
 -1.88972612E-09  2.26286809E+00  1.30654538E+00 -1.88972612E-09  2.26286809E+00
  1.30654538E+00 -1.88972612E-09  2.26286809E+00  1.30654538E+00 -1.88972612E-09
  2.26286809E+00  1.30654538E+00 -1.88972612E-09  2.28895274E+00 -1.32020513E+00
  0.00000000E+00  2.28895274E+00 -1.32020513E+00  0.00000000E+00  2.28895274E+00
 -1.32020513E+00  0.00000000E+00  2.28895274E+00 -1.32020513E+00  0.00000000E+00
  2.28895274E+00 -1.32020513E+00  0.00000000E+00  2.28895274E+00 -1.32020513E+00
  0.00000000E+00 -3.90811992E-03 -2.57725787E+00  1.88972612E-09 -3.90811992E-03
 -2.57725787E+00  1.88972612E-09 -3.90811992E-03 -2.57725787E+00  1.88972612E-09
 -3.90811992E-03 -2.57725787E+00  1.88972612E-09 -3.90811992E-03 -2.57725787E+00
  1.88972612E-09 -3.90811992E-03 -2.57725787E+00  1.88972612E-09 -2.30174809E+00
 -1.32898157E+00  0.00000000E+00 -2.30174809E+00 -1.32898157E+00  0.00000000E+00
 -2.30174809E+00 -1.32898157E+00  0.00000000E+00 -2.30174809E+00 -1.32898157E+00
  0.00000000E+00 -2.30174809E+00 -1.32898157E+00  0.00000000E+00 -2.30174809E+00
 -1.32898157E+00  0.00000000E+00 -2.23377607E+00  1.28523914E+00  1.88972612E-09
 -2.23377607E+00  1.28523914E+00  1.88972612E-09 -2.23377607E+00  1.28523914E+00
  1.88972612E-09 -2.23377607E+00  1.28523914E+00  1.88972612E-09 -2.23377607E+00
  1.28523914E+00  1.88972612E-09 -2.23377607E+00  1.28523914E+00  1.88972612E-09
  1.17514131E-03  2.64258656E+00  0.00000000E+00  1.17514131E-03  2.64258656E+00
  0.00000000E+00  1.17514131E-03  2.64258656E+00  0.00000000E+00  1.17514131E-03
  2.64258656E+00  0.00000000E+00  1.17514131E-03  2.64258656E+00  0.00000000E+00
  1.17514131E-03  2.64258656E+00  0.00000000E+00  4.03773873E+00  2.33112571E+00
 -1.88972612E-09  4.03773873E+00  2.33112571E+00 -1.88972612E-09  4.03773873E+00
  2.33112571E+00 -1.88972612E-09  4.03773873E+00  2.33112571E+00 -1.88972612E-09
  4.03773873E+00  2.33112571E+00 -1.88972612E-09  4.03572837E+00 -2.38670022E+00
  1.88972612E-09  4.03572837E+00 -2.38670022E+00  1.88972612E-09  4.03572837E+00
 -2.38670022E+00  1.88972612E-09  4.03572837E+00 -2.38670022E+00  1.88972612E-09
  4.03572837E+00 -2.38670022E+00  1.88972612E-09 -4.07352801E+00 -2.35162978E+00
 -1.88972612E-09 -4.07352801E+00 -2.35162978E+00 -1.88972612E-09 -4.07352801E+00
 -2.35162978E+00 -1.88972612E-09 -4.07352801E+00 -2.35162978E+00 -1.88972612E-09
 -4.07352801E+00 -2.35162978E+00 -1.88972612E-09 -4.89214699E-02  4.68856356E+00
  0.00000000E+00 -4.89214699E-02  4.68856356E+00  0.00000000E+00 -4.89214699E-02
  4.68856356E+00  0.00000000E+00 -4.89214699E-02  4.68856356E+00  0.00000000E+00
 -4.89214699E-02  4.68856356E+00  0.00000000E+00 -1.59359754E-02 -5.11116496E+00
  0.00000000E+00 -1.59359754E-02 -5.11116496E+00  0.00000000E+00 -1.59359754E-02
 -5.11116496E+00  0.00000000E+00 -1.59359754E-02 -5.11116496E+00  0.00000000E+00
 -1.59359754E-02 -5.11116496E+00  0.00000000E+00 -1.59359754E-02 -5.11116496E+00
  0.00000000E+00 -4.43442872E+00  2.54141204E+00 -1.88972612E-09 -4.43442872E+00
  2.54141204E+00 -1.88972612E-09 -4.43442872E+00  2.54141204E+00 -1.88972612E-09
 -4.43442872E+00  2.54141204E+00 -1.88972612E-09 -4.43442872E+00  2.54141204E+00
 -1.88972612E-09 -4.43442872E+00  2.54141204E+00 -1.88972612E-09
Num ILSW                                   I              100
ILSW                                       I   N=         100
           0           0           0           0           2           0
           0           0           0           0        1009          -1
           5           0           0           0           0           0
           0           0           0           0           0           0
           1           1           0           0           0           0
           0           0      100000           0          -1           0
           0           0           0           0           0           0
           0           0           0           1           0           0
           0 -2000000000           1           0           0           0
           0           0           4          52           0           0
           0           0          13           0           0           0
           0           0           0          12           0           1
           0           0           0           0           0           0
           0           0           0           0           0           0
           0           0           0           0           0           0
           0           0           0           0           0           0
           0           0           0           0
Num RLSW                                   I               52
RLSW                                       R   N=          52
  7.50000000E-01  7.50000000E-01  1.00000000E+00  1.00000000E+00  2.50000000E-01
  0.00000000E+00  0.00000000E+00  1.00000000E+00  0.00000000E+00  0.00000000E+00
  0.00000000E+00  0.00000000E+00  1.00000000E+00  0.00000000E+00  0.00000000E+00
  0.00000000E+00  0.00000000E+00  1.00000000E+00  0.00000000E+00  0.00000000E+00
  0.00000000E+00  0.00000000E+00  1.00000000E+00  0.00000000E+00  0.00000000E+00
  0.00000000E+00  0.00000000E+00  1.00000000E+00  0.00000000E+00  0.00000000E+00
  0.00000000E+00  0.00000000E+00  1.00000000E+00  0.00000000E+00  0.00000000E+00
  0.00000000E+00  0.00000000E+00  0.00000000E+00  1.00000000E+00  1.00000000E+00
  0.00000000E+00  1.00000000E+00  0.00000000E+00  0.00000000E+00  0.00000000E+00
  0.00000000E+00  0.00000000E+00  0.00000000E+00  0.00000000E+00  0.00000000E+00
  0.00000000E+00  0.00000000E+00
MxBond                                     I                3
NBond                                      I   N=          12
           3           3           3           3           3           3
           1           1           1           1           1           1
IBond                                      I   N=          36
           2           6           7           1           3           8
           2           4          11           3           5           9
           4           6          12           1           5          10
           1           0           0           2           0           0
           4           0           0           6           0           0
           3           0           0           5           0           0
RBond                                      R   N=          36
  1.50000000E+00  1.50000000E+00  1.00000000E+00  1.50000000E+00  1.50000000E+00
  1.00000000E+00  1.50000000E+00  1.50000000E+00  1.00000000E+00  1.50000000E+00
  1.50000000E+00  1.00000000E+00  1.50000000E+00  1.50000000E+00  1.00000000E+00
  1.50000000E+00  1.50000000E+00  1.00000000E+00  1.00000000E+00  0.00000000E+00
  0.00000000E+00  1.00000000E+00  0.00000000E+00  0.00000000E+00  1.00000000E+00
  0.00000000E+00  0.00000000E+00  1.00000000E+00  0.00000000E+00  0.00000000E+00
  1.00000000E+00  0.00000000E+00  0.00000000E+00  1.00000000E+00  0.00000000E+00
  0.00000000E+00
Virial Ratio                               R      2.003169557078149E+00
SCF Energy                                 R     -4.303783116793390E+02
Total Energy                               R     -4.303783116793390E+02
RMS Density                                R      2.055245880364385E-09
Job Status                                 I                1
Nuclear derivative order                   I                0
External E-field                           R   N=          35
  0.00000000E+00  0.00000000E+00  0.00000000E+00  0.00000000E+00  0.00000000E+00
  0.00000000E+00  0.00000000E+00  0.00000000E+00  0.00000000E+00  0.00000000E+00
  0.00000000E+00  0.00000000E+00  0.00000000E+00  0.00000000E+00  0.00000000E+00
  0.00000000E+00  0.00000000E+00  0.00000000E+00  0.00000000E+00  0.00000000E+00
  0.00000000E+00  0.00000000E+00  0.00000000E+00  0.00000000E+00  0.00000000E+00
  0.00000000E+00  0.00000000E+00  0.00000000E+00  0.00000000E+00  0.00000000E+00
  0.00000000E+00  0.00000000E+00  0.00000000E+00  0.00000000E+00  0.00000000E+00
IOpCl                                      I                0
IROHF                                      I                0
Alpha Orbital Energies                     R   N=         204
 -2.47930239E+01 -2.47930185E+01 -1.03303951E+01 -1.03303897E+01 -1.02560302E+01
 -1.02493984E+01 -1.02455884E+01 -1.02455637E+01 -1.27799262E+00 -1.27748573E+00
 -9.14343816E-01 -8.03296442E-01 -7.94006947E-01 -6.69259675E-01 -6.61614061E-01
 -5.97304772E-01 -5.52812272E-01 -5.36373013E-01 -5.22095490E-01 -5.08581972E-01
 -4.95097901E-01 -4.74417672E-01 -4.64118329E-01 -4.23515379E-01 -4.03668707E-01
 -3.88589617E-01 -3.87507137E-01 -2.87565288E-01 -2.74136322E-01 -2.84714540E-02
 -1.51004028E-02  1.46019532E-03  1.69748904E-02  2.19311814E-02  3.74242834E-02
  5.33478099E-02  5.54177445E-02  6.16642698E-02  8.95583029E-02  9.09372884E-02
  9.96971226E-02  1.07809432E-01  1.18642436E-01  1.29148999E-01  1.29385497E-01
  1.33270473E-01  1.35951885E-01  1.40586042E-01  1.41868686E-01  1.42570485E-01
  1.43781579E-01  1.54070131E-01  1.56987077E-01  1.65295245E-01  1.82356206E-01
  1.95486071E-01  2.04241723E-01  2.12512564E-01  2.21568191E-01  2.25998790E-01
  2.59684292E-01  2.64330374E-01  2.75275177E-01  2.79857368E-01  2.81896093E-01
  2.93714260E-01  3.08899882E-01  3.43310906E-01  3.47299146E-01  3.57893446E-01
  3.65433164E-01  3.65615117E-01  3.71335693E-01  4.04216293E-01  4.13385481E-01
  4.32603679E-01  4.41023081E-01  4.58104352E-01  4.84493981E-01  5.18800540E-01
  5.21986328E-01  5.41612207E-01  5.66847049E-01  5.71469733E-01  5.78855448E-01
  5.86824752E-01  5.95036873E-01  6.17371511E-01  6.21375882E-01  6.26033392E-01
  6.80148849E-01  6.88197006E-01  6.97066022E-01  7.56009311E-01  7.78357469E-01
  7.93749004E-01  8.18392603E-01  8.20986489E-01  8.62125378E-01  8.73178626E-01
  8.75379603E-01  9.13608124E-01  9.23073372E-01  9.40784702E-01  9.41452796E-01
  9.79409167E-01  9.95272258E-01  1.02829910E+00  1.03624183E+00  1.07457362E+00
  1.08531935E+00  1.14995580E+00  1.20273539E+00  1.26710438E+00  1.35704206E+00
  1.41733922E+00  1.43443534E+00  1.44406741E+00  1.45199113E+00  1.45483480E+00
  1.50971144E+00  1.53930626E+00  1.54669962E+00  1.55530035E+00  1.55564521E+00
  1.55959846E+00  1.59739821E+00  1.60680846E+00  1.65087900E+00  1.65433034E+00
  1.70959697E+00  1.74513618E+00  1.78426920E+00  1.89282365E+00  1.90294971E+00
  1.90411779E+00  1.90846214E+00  1.95588728E+00  1.96684735E+00  1.97714003E+00
  2.01073992E+00  2.02524256E+00  2.05504416E+00  2.06019334E+00  2.08278774E+00
  2.09727268E+00  2.22516590E+00  2.25415583E+00  2.32028845E+00  2.38539489E+00
  2.44531144E+00  2.48193535E+00  2.49275991E+00  2.63861905E+00  2.64551963E+00
  2.71090519E+00  2.73039620E+00  2.73611231E+00  2.74103869E+00  2.75598887E+00
  2.76594375E+00  2.79108545E+00  2.83541240E+00  2.88320614E+00  2.88551927E+00
  2.89181552E+00  3.08697424E+00  3.15758909E+00  3.17062115E+00  3.21609118E+00
  3.36364821E+00  3.38209880E+00  3.50682368E+00  3.63863848E+00  3.65013728E+00
  3.77073799E+00  3.79399470E+00  3.79433556E+00  3.85947505E+00  3.87138733E+00
  4.00108910E+00  4.00404082E+00  4.03574588E+00  4.13910850E+00  4.14024703E+00
  4.16176538E+00  4.17958257E+00  4.84514010E+00  4.88870224E+00  4.90004596E+00
  6.35067303E+00  6.36651688E+00  6.48557473E+00  6.48684590E+00  6.76636249E+00
  6.83156009E+00  2.36295083E+01  2.39841641E+01  2.40487538E+01  2.41786929E+01
  2.41905373E+01  2.42893237E+01  6.69468459E+01  6.69520534E+01
Alpha MO coefficients                      R   N=       41616
 -1.38149690E-06  6.10110588E-06 -9.76068728E-06 -4.66762097E-05  8.33172665E-14
  3.72664108E-05  5.07099458E-05  2.56345002E-04 -3.52123508E-13 -5.05862445E-03
  1.39492838E-03  1.75667332E-03 -2.38158606E-12 -4.69743476E-02  1.07642273E-02
  3.57316308E-03 -1.07738249E-12  9.23386914E-06 -3.80493681E-14  1.70575734E-13
  6.13444720E-05 -2.78922098E-05 -5.99564303E-06  2.66232210E-05  1.56636881E-05
 -3.61622393E-05  7.15894934E-14 -2.51364119E-04 -5.14185552E-05  1.56688432E-04
 -3.49562235E-13  5.82280421E-03 -3.73615553E-03  3.65593343E-03  6.01405165E-13
  5.55094362E-02 -1.42831800E-02  4.34960407E-03 -1.21206659E-11 -3.43182069E-05
 -4.35983501E-13  9.82696815E-14  3.12402953E-05 -1.05289985E-04  2.47395202E-05
 -1.04759471E-04  3.94360340E-06 -1.32205897E-04  1.87882291E-13  6.72432836E-04
 -2.70334659E-05 -1.56682554E-04 -1.17942079E-12 -3.41696217E-03 -1.56371077E-04
 -7.94282458E-03  2.58825506E-12 -7.29753141E-02  3.38798947E-04 -1.10743752E-02
  3.33190992E-11 -1.53355493E-04  1.23372938E-13  1.20744203E-12 -6.77675327E-06
 -7.31450693E-06 -5.89745815E-06  2.60710885E-05 -5.71894495E-06 -4.29692763E-05
  1.31384379E-13 -2.54131547E-04  4.62816624E-07  1.86559818E-04 -5.04769528E-13
  5.67063858E-03  3.09866677E-03  3.63889767E-03  4.67677804E-12  5.44592252E-02
  1.29142757E-02  3.49874373E-03 -2.37444520E-12 -4.34665874E-05  1.69260688E-13
  4.35967971E-13  2.35286467E-05  1.05458266E-04 -2.86953920E-06  1.13632508E-05
  3.54884512E-05 -4.77977033E-05  2.28838875E-13  1.97120517E-05 -1.34317966E-04
  2.46172986E-04 -7.82019255E-13 -5.71524282E-03  3.85614038E-04  1.46703101E-03
  6.26956321E-12 -4.21420710E-02 -7.45435604E-03  3.62992712E-03  1.92632483E-11
  2.44164928E-05  1.48326203E-13 -8.13997099E-14  5.90145634E-05  4.73622453E-05
 -3.93915472E-06  1.60770495E-05  2.22304126E-06 -8.92340344E-06  8.07205928E-14
 -1.47190635E-04 -4.53994488E-06  6.95483382E-05 -2.71458551E-13  1.74752150E-03
  2.46321434E-04 -1.47379389E-03 -9.90844309E-13  4.47418962E-02  1.15402808E-03
 -8.31388673E-03 -8.61394582E-12 -1.36638256E-05  2.27829657E-13  1.48941189E-14
 -1.88398965E-05 -4.38985587E-06 -3.24651817E-06 -1.07872925E-04 -3.91057152E-04
 -1.96811343E-03  2.55580165E-05 -1.45398809E-05  1.20314667E-13 -8.22802035E-05
  8.36482271E-04  1.75986562E-03  3.29254841E-03 -2.59659540E-05  1.46941394E-05
 -4.35307958E-13 -8.10010537E-05  7.15980210E-04  1.37399882E-03  2.52384638E-03
  1.56565167E-05 -7.83201159E-06  3.20373704E-14 -3.79615028E-05  2.18369737E-04