1 2 3 4 TtFB SP                                                         
SP        RPBE1PBE                                                    6-311++G(d,p)       
Number of atoms                            I               12
Info1-9                                    I   N=           9
          19          19           0           0           0         110
           1          18        -302
Full Title                                 C   N=           2
1 2 3 4 TtFB SP         
Route                                      C   N=           4
#p PBE1PBE/6-311++G(d,p) density=current nosymm 
Charge                                     I                0
Multiplicity                               I                1
Number of electrons                        I               74
Number of alpha electrons                  I               37
Number of beta electrons                   I               37
Number of basis functions                  I              234
Number of independent functions            I              234
Number of point charges in /Mol/           I                0
Number of translation vectors              I                0
Atomic numbers                             I   N=          12
           6           6           6           6           6           6
           1           1           9           9           9           9
Nuclear charges                            R   N=          12
  6.00000000E+00  6.00000000E+00  6.00000000E+00  6.00000000E+00  6.00000000E+00
  6.00000000E+00  1.00000000E+00  1.00000000E+00  9.00000000E+00  9.00000000E+00
  9.00000000E+00  9.00000000E+00
Current cartesian coordinates              R   N=          36
  2.27082184E+00  1.31315533E+00  0.00000000E+00  2.27082184E+00 -1.31315533E+00
 -1.88972612E-09  2.46164607E-03 -2.60426265E+00 -9.44863062E-09 -2.27992624E+00
 -1.31117699E+00  1.88972612E-09 -2.27992624E+00  1.31117699E+00  0.00000000E+00
  2.46164607E-03  2.60426265E+00  7.55890450E-09  4.02001435E+00  2.37589320E+00
 -7.55890450E-09  4.02001435E+00 -2.37589320E+00  5.66917837E-09 -4.41478819E-02
 -5.12272618E+00  5.66917837E-09 -4.45500708E+00 -2.55321171E+00 -7.55890450E-09
 -4.45500708E+00  2.55321171E+00  3.77945225E-09 -4.41478819E-02  5.12272618E+00
 -1.88972612E-09
Number of symbols in /Mol/                 I                0
Force Field                                I                0
Atom Types                                 C   N=          12
                                                            
                                                            
                        
Int Atom Types                             I   N=          12
           0           0           0           0           0           0
           0           0           0           0           0           0
MM charges                                 R   N=          12
  0.00000000E+00  0.00000000E+00  0.00000000E+00  0.00000000E+00  0.00000000E+00
  0.00000000E+00  0.00000000E+00  0.00000000E+00  0.00000000E+00  0.00000000E+00
  0.00000000E+00  0.00000000E+00
Integer atomic weights                     I   N=          12
          12          12          12          12          12          12
           1           1          19          19          19          19
Real atomic weights                        R   N=          12
  1.20000000E+01  1.20000000E+01  1.20000000E+01  1.20000000E+01  1.20000000E+01
  1.20000000E+01  1.00782504E+00  1.00782504E+00  1.89984032E+01  1.89984032E+01
  1.89984032E+01  1.89984032E+01
Atom fragment info                         I   N=          12
           0           0           0           0           0           0
           0           0           0           0           0           0
Atom residue num                           I   N=          12
           0           0           0           0           0           0
           0           0           0           0           0           0
Nuclear spins                              I   N=          12
           0           0           0           0           0           0
           1           1           1           1           1           1
Nuclear ZEff                               R   N=          12
 -3.60000000E+00 -3.60000000E+00 -3.60000000E+00 -3.60000000E+00 -3.60000000E+00
 -3.60000000E+00 -1.00000000E+00 -1.00000000E+00 -6.75000000E+00 -6.75000000E+00
 -6.75000000E+00 -6.75000000E+00
Nuclear ZNuc                               R   N=          12
  6.00000000E+00  6.00000000E+00  6.00000000E+00  6.00000000E+00  6.00000000E+00
  6.00000000E+00  1.00000000E+00  1.00000000E+00  9.00000000E+00  9.00000000E+00
  9.00000000E+00  9.00000000E+00
Nuclear QMom                               R   N=          12
  0.00000000E+00  0.00000000E+00  0.00000000E+00  0.00000000E+00  0.00000000E+00
  0.00000000E+00  0.00000000E+00  0.00000000E+00  0.00000000E+00  0.00000000E+00
  0.00000000E+00  0.00000000E+00
Nuclear GFac                               R   N=          12
  0.00000000E+00  0.00000000E+00  0.00000000E+00  0.00000000E+00  0.00000000E+00
  0.00000000E+00  2.79284600E+00  2.79284600E+00  2.62886700E+00  2.62886700E+00
  2.62886700E+00  2.62886700E+00
MicOpt                                     I   N=          12
          -1          -1          -1          -1          -1          -1
          -1          -1          -1          -1          -1          -1
Number of residues                         I                0
Number of secondary structures             I                0
Number of contracted shells                I               70
Number of primitive shells                 I              144
Pure/Cartesian d shells                    I                0
Pure/Cartesian f shells                    I                0
Highest angular momentum                   I                2
Largest degree of contraction              I                6
Shell types                                I   N=          70
           0          -1          -1          -1          -1          -2
           0          -1          -1          -1          -1          -2
           0          -1          -1          -1          -1          -2
           0          -1          -1          -1          -1          -2
           0          -1          -1          -1          -1          -2
           0          -1          -1          -1          -1          -2
           0           0           0           0           1           0
           0           0           0           1           0          -1
          -1          -1          -1          -2           0          -1
          -1          -1          -1          -2           0          -1
          -1          -1          -1          -2           0          -1
          -1          -1          -1          -2
Number of primitives per shell             I   N=          70
           6           3           1           1           1           1
           6           3           1           1           1           1
           6           3           1           1           1           1
           6           3           1           1           1           1
           6           3           1           1           1           1
           6           3           1           1           1           1
           3           1           1           1           1           3
           1           1           1           1           6           3
           1           1           1           1           6           3
           1           1           1           1           6           3
           1           1           1           1           6           3
           1           1           1           1
Shell to atom map                          I   N=          70
           1           1           1           1           1           1
           2           2           2           2           2           2
           3           3           3           3           3           3
           4           4           4           4           4           4
           5           5           5           5           5           5
           6           6           6           6           6           6
           7           7           7           7           7           8
           8           8           8           8           9           9
           9           9           9           9          10          10
          10          10          10          10          11          11
          11          11          11          11          12          12
          12          12          12          12
Primitive exponents                        R   N=         144
  4.56324000E+03  6.82024000E+02  1.54973000E+02  4.44553000E+01  1.30290000E+01
  1.82773000E+00  2.09642000E+01  4.80331000E+00  1.45933000E+00  4.83456000E-01
  1.45585000E-01  4.38000000E-02  6.26000000E-01  4.56324000E+03  6.82024000E+02
  1.54973000E+02  4.44553000E+01  1.30290000E+01  1.82773000E+00  2.09642000E+01
  4.80331000E+00  1.45933000E+00  4.83456000E-01  1.45585000E-01  4.38000000E-02
  6.26000000E-01  4.56324000E+03  6.82024000E+02  1.54973000E+02  4.44553000E+01
  1.30290000E+01  1.82773000E+00  2.09642000E+01  4.80331000E+00  1.45933000E+00
  4.83456000E-01  1.45585000E-01  4.38000000E-02  6.26000000E-01  4.56324000E+03
  6.82024000E+02  1.54973000E+02  4.44553000E+01  1.30290000E+01  1.82773000E+00
  2.09642000E+01  4.80331000E+00  1.45933000E+00  4.83456000E-01  1.45585000E-01
  4.38000000E-02  6.26000000E-01  4.56324000E+03  6.82024000E+02  1.54973000E+02
  4.44553000E+01  1.30290000E+01  1.82773000E+00  2.09642000E+01  4.80331000E+00
  1.45933000E+00  4.83456000E-01  1.45585000E-01  4.38000000E-02  6.26000000E-01
  4.56324000E+03  6.82024000E+02  1.54973000E+02  4.44553000E+01  1.30290000E+01
  1.82773000E+00  2.09642000E+01  4.80331000E+00  1.45933000E+00  4.83456000E-01
  1.45585000E-01  4.38000000E-02  6.26000000E-01  3.38650000E+01  5.09479000E+00
  1.15879000E+00  3.25840000E-01  1.02741000E-01  3.60000000E-02  7.50000000E-01
  3.38650000E+01  5.09479000E+00  1.15879000E+00  3.25840000E-01  1.02741000E-01
  3.60000000E-02  7.50000000E-01  1.14271000E+04  1.72235000E+03  3.95746000E+02
  1.15139000E+02  3.36026000E+01  4.91901000E+00  5.54441000E+01  1.26323000E+01
  3.71756000E+00  1.16545000E+00  3.21892000E-01  1.07600000E-01  1.75000000E+00
  1.14271000E+04  1.72235000E+03  3.95746000E+02  1.15139000E+02  3.36026000E+01
  4.91901000E+00  5.54441000E+01  1.26323000E+01  3.71756000E+00  1.16545000E+00
  3.21892000E-01  1.07600000E-01  1.75000000E+00  1.14271000E+04  1.72235000E+03
  3.95746000E+02  1.15139000E+02  3.36026000E+01  4.91901000E+00  5.54441000E+01
  1.26323000E+01  3.71756000E+00  1.16545000E+00  3.21892000E-01  1.07600000E-01
  1.75000000E+00  1.14271000E+04  1.72235000E+03  3.95746000E+02  1.15139000E+02
  3.36026000E+01  4.91901000E+00  5.54441000E+01  1.26323000E+01  3.71756000E+00
  1.16545000E+00  3.21892000E-01  1.07600000E-01  1.75000000E+00
Contraction coefficients                   R   N=         144
  1.96665025E-03  1.52306019E-02  7.61269097E-02  2.60801033E-01  6.16462078E-01
  2.21006028E-01  1.14660081E-01  9.19999648E-01 -3.03068213E-03  1.00000000E+00
  1.00000000E+00  1.00000000E+00  1.00000000E+00  1.96665025E-03  1.52306019E-02
  7.61269097E-02  2.60801033E-01  6.16462078E-01  2.21006028E-01  1.14660081E-01
  9.19999648E-01 -3.03068213E-03  1.00000000E+00  1.00000000E+00  1.00000000E+00
  1.00000000E+00  1.96665025E-03  1.52306019E-02  7.61269097E-02  2.60801033E-01
  6.16462078E-01  2.21006028E-01  1.14660081E-01  9.19999648E-01 -3.03068213E-03
  1.00000000E+00  1.00000000E+00  1.00000000E+00  1.00000000E+00  1.96665025E-03
  1.52306019E-02  7.61269097E-02  2.60801033E-01  6.16462078E-01  2.21006028E-01
  1.14660081E-01  9.19999648E-01 -3.03068213E-03  1.00000000E+00  1.00000000E+00
  1.00000000E+00  1.00000000E+00  1.96665025E-03  1.52306019E-02  7.61269097E-02
  2.60801033E-01  6.16462078E-01  2.21006028E-01  1.14660081E-01  9.19999648E-01
 -3.03068213E-03  1.00000000E+00  1.00000000E+00  1.00000000E+00  1.00000000E+00
  1.96665025E-03  1.52306019E-02  7.61269097E-02  2.60801033E-01  6.16462078E-01
  2.21006028E-01  1.14660081E-01  9.19999648E-01 -3.03068213E-03  1.00000000E+00
  1.00000000E+00  1.00000000E+00  1.00000000E+00  2.54938145E-02  1.90373109E-01
  8.52161486E-01  1.00000000E+00  1.00000000E+00  1.00000000E+00  1.00000000E+00
  2.54938145E-02  1.90373109E-01  8.52161486E-01  1.00000000E+00  1.00000000E+00
  1.00000000E+00  1.00000000E+00  1.80093016E-03  1.37419012E-02  6.81334059E-02
  2.33325020E-01  5.89086051E-01  2.99505026E-01  1.14536016E-01  9.20512125E-01
 -3.37804046E-03  1.00000000E+00  1.00000000E+00  1.00000000E+00  1.00000000E+00
  1.80093016E-03  1.37419012E-02  6.81334059E-02  2.33325020E-01  5.89086051E-01
  2.99505026E-01  1.14536016E-01  9.20512125E-01 -3.37804046E-03  1.00000000E+00
  1.00000000E+00  1.00000000E+00  1.00000000E+00  1.80093016E-03  1.37419012E-02
  6.81334059E-02  2.33325020E-01  5.89086051E-01  2.99505026E-01  1.14536016E-01
  9.20512125E-01 -3.37804046E-03  1.00000000E+00  1.00000000E+00  1.00000000E+00
  1.00000000E+00  1.80093016E-03  1.37419012E-02  6.81334059E-02  2.33325020E-01
  5.89086051E-01  2.99505026E-01  1.14536016E-01  9.20512125E-01 -3.37804046E-03
  1.00000000E+00  1.00000000E+00  1.00000000E+00  1.00000000E+00
P(S=P) Contraction coefficients            R   N=         144
  0.00000000E+00  0.00000000E+00  0.00000000E+00  0.00000000E+00  0.00000000E+00
  0.00000000E+00  4.02486927E-02  2.37593957E-01  8.15853851E-01  1.00000000E+00
  1.00000000E+00  1.00000000E+00  0.00000000E+00  0.00000000E+00  0.00000000E+00
  0.00000000E+00  0.00000000E+00  0.00000000E+00  0.00000000E+00  4.02486927E-02
  2.37593957E-01  8.15853851E-01  1.00000000E+00  1.00000000E+00  1.00000000E+00
  0.00000000E+00  0.00000000E+00  0.00000000E+00  0.00000000E+00  0.00000000E+00
  0.00000000E+00  0.00000000E+00  4.02486927E-02  2.37593957E-01  8.15853851E-01
  1.00000000E+00  1.00000000E+00  1.00000000E+00  0.00000000E+00  0.00000000E+00
  0.00000000E+00  0.00000000E+00  0.00000000E+00  0.00000000E+00  0.00000000E+00
  4.02486927E-02  2.37593957E-01  8.15853851E-01  1.00000000E+00  1.00000000E+00
  1.00000000E+00  0.00000000E+00  0.00000000E+00  0.00000000E+00  0.00000000E+00
  0.00000000E+00  0.00000000E+00  0.00000000E+00  4.02486927E-02  2.37593957E-01
  8.15853851E-01  1.00000000E+00  1.00000000E+00  1.00000000E+00  0.00000000E+00
  0.00000000E+00  0.00000000E+00  0.00000000E+00  0.00000000E+00  0.00000000E+00
  0.00000000E+00  4.02486927E-02  2.37593957E-01  8.15853851E-01  1.00000000E+00
  1.00000000E+00  1.00000000E+00  0.00000000E+00  0.00000000E+00  0.00000000E+00
  0.00000000E+00  0.00000000E+00  0.00000000E+00  0.00000000E+00  0.00000000E+00
  0.00000000E+00  0.00000000E+00  0.00000000E+00  0.00000000E+00  0.00000000E+00
  0.00000000E+00  0.00000000E+00  0.00000000E+00  0.00000000E+00  0.00000000E+00
  0.00000000E+00  0.00000000E+00  0.00000000E+00  3.54608874E-02  2.37450915E-01
  8.20457708E-01  1.00000000E+00  1.00000000E+00  1.00000000E+00  0.00000000E+00
  0.00000000E+00  0.00000000E+00  0.00000000E+00  0.00000000E+00  0.00000000E+00
  0.00000000E+00  3.54608874E-02  2.37450915E-01  8.20457708E-01  1.00000000E+00
  1.00000000E+00  1.00000000E+00  0.00000000E+00  0.00000000E+00  0.00000000E+00
  0.00000000E+00  0.00000000E+00  0.00000000E+00  0.00000000E+00  3.54608874E-02
  2.37450915E-01  8.20457708E-01  1.00000000E+00  1.00000000E+00  1.00000000E+00
  0.00000000E+00  0.00000000E+00  0.00000000E+00  0.00000000E+00  0.00000000E+00
  0.00000000E+00  0.00000000E+00  3.54608874E-02  2.37450915E-01  8.20457708E-01
  1.00000000E+00  1.00000000E+00  1.00000000E+00  0.00000000E+00
Coordinates of each shell                  R   N=         210
  2.27082184E+00  1.31315533E+00  0.00000000E+00  2.27082184E+00  1.31315533E+00
  0.00000000E+00  2.27082184E+00  1.31315533E+00  0.00000000E+00  2.27082184E+00
  1.31315533E+00  0.00000000E+00  2.27082184E+00  1.31315533E+00  0.00000000E+00
  2.27082184E+00  1.31315533E+00  0.00000000E+00  2.27082184E+00 -1.31315533E+00
 -1.88972612E-09  2.27082184E+00 -1.31315533E+00 -1.88972612E-09  2.27082184E+00
 -1.31315533E+00 -1.88972612E-09  2.27082184E+00 -1.31315533E+00 -1.88972612E-09
  2.27082184E+00 -1.31315533E+00 -1.88972612E-09  2.27082184E+00 -1.31315533E+00
 -1.88972612E-09  2.46164607E-03 -2.60426265E+00 -9.44863062E-09  2.46164607E-03
 -2.60426265E+00 -9.44863062E-09  2.46164607E-03 -2.60426265E+00 -9.44863062E-09
  2.46164607E-03 -2.60426265E+00 -9.44863062E-09  2.46164607E-03 -2.60426265E+00
 -9.44863062E-09  2.46164607E-03 -2.60426265E+00 -9.44863062E-09 -2.27992624E+00
 -1.31117699E+00  1.88972612E-09 -2.27992624E+00 -1.31117699E+00  1.88972612E-09
 -2.27992624E+00 -1.31117699E+00  1.88972612E-09 -2.27992624E+00 -1.31117699E+00
  1.88972612E-09 -2.27992624E+00 -1.31117699E+00  1.88972612E-09 -2.27992624E+00
 -1.31117699E+00  1.88972612E-09 -2.27992624E+00  1.31117699E+00  0.00000000E+00
 -2.27992624E+00  1.31117699E+00  0.00000000E+00 -2.27992624E+00  1.31117699E+00
  0.00000000E+00 -2.27992624E+00  1.31117699E+00  0.00000000E+00 -2.27992624E+00
  1.31117699E+00  0.00000000E+00 -2.27992624E+00  1.31117699E+00  0.00000000E+00
  2.46164607E-03  2.60426265E+00  7.55890450E-09  2.46164607E-03  2.60426265E+00
  7.55890450E-09  2.46164607E-03  2.60426265E+00  7.55890450E-09  2.46164607E-03
  2.60426265E+00  7.55890450E-09  2.46164607E-03  2.60426265E+00  7.55890450E-09
  2.46164607E-03  2.60426265E+00  7.55890450E-09  4.02001435E+00  2.37589320E+00
 -7.55890450E-09  4.02001435E+00  2.37589320E+00 -7.55890450E-09  4.02001435E+00
  2.37589320E+00 -7.55890450E-09  4.02001435E+00  2.37589320E+00 -7.55890450E-09
  4.02001435E+00  2.37589320E+00 -7.55890450E-09  4.02001435E+00 -2.37589320E+00
  5.66917837E-09  4.02001435E+00 -2.37589320E+00  5.66917837E-09  4.02001435E+00
 -2.37589320E+00  5.66917837E-09  4.02001435E+00 -2.37589320E+00  5.66917837E-09
  4.02001435E+00 -2.37589320E+00  5.66917837E-09 -4.41478819E-02 -5.12272618E+00
  5.66917837E-09 -4.41478819E-02 -5.12272618E+00  5.66917837E-09 -4.41478819E-02
 -5.12272618E+00  5.66917837E-09 -4.41478819E-02 -5.12272618E+00  5.66917837E-09
 -4.41478819E-02 -5.12272618E+00  5.66917837E-09 -4.41478819E-02 -5.12272618E+00
  5.66917837E-09 -4.45500708E+00 -2.55321171E+00 -7.55890450E-09 -4.45500708E+00
 -2.55321171E+00 -7.55890450E-09 -4.45500708E+00 -2.55321171E+00 -7.55890450E-09
 -4.45500708E+00 -2.55321171E+00 -7.55890450E-09 -4.45500708E+00 -2.55321171E+00
 -7.55890450E-09 -4.45500708E+00 -2.55321171E+00 -7.55890450E-09 -4.45500708E+00
  2.55321171E+00  3.77945225E-09 -4.45500708E+00  2.55321171E+00  3.77945225E-09
 -4.45500708E+00  2.55321171E+00  3.77945225E-09 -4.45500708E+00  2.55321171E+00
  3.77945225E-09 -4.45500708E+00  2.55321171E+00  3.77945225E-09 -4.45500708E+00
  2.55321171E+00  3.77945225E-09 -4.41478819E-02  5.12272618E+00 -1.88972612E-09
 -4.41478819E-02  5.12272618E+00 -1.88972612E-09 -4.41478819E-02  5.12272618E+00
 -1.88972612E-09 -4.41478819E-02  5.12272618E+00 -1.88972612E-09 -4.41478819E-02
  5.12272618E+00 -1.88972612E-09 -4.41478819E-02  5.12272618E+00 -1.88972612E-09
Num ILSW                                   I              100
ILSW                                       I   N=         100
           0           0           0           0           2           0
           0           0           0           0        1009          -1
           5           0           0           0           0           0
           0           0           0           0           0           0
           1           1           0           0           0           0
           0           0      100000           0          -1           0
           0           0           0           0           0           0
           0           0           0           1           0           0
           0 -2000000000           1           0           0           0
           0           0           4          52           0           0
           0           0          13           0           0           0
           0           0           0          12           0           1
           0           0           0           0           0           0
           0           0           0           0           0           0
           0           0           0           0           0           0
           0           0           0           0           0           0
           0           0           0           0
Num RLSW                                   I               52
RLSW                                       R   N=          52
  7.50000000E-01  7.50000000E-01  1.00000000E+00  1.00000000E+00  2.50000000E-01
  0.00000000E+00  0.00000000E+00  1.00000000E+00  0.00000000E+00  0.00000000E+00
  0.00000000E+00  0.00000000E+00  1.00000000E+00  0.00000000E+00  0.00000000E+00
  0.00000000E+00  0.00000000E+00  1.00000000E+00  0.00000000E+00  0.00000000E+00
  0.00000000E+00  0.00000000E+00  1.00000000E+00  0.00000000E+00  0.00000000E+00
  0.00000000E+00  0.00000000E+00  1.00000000E+00  0.00000000E+00  0.00000000E+00
  0.00000000E+00  0.00000000E+00  1.00000000E+00  0.00000000E+00  0.00000000E+00
  0.00000000E+00  0.00000000E+00  0.00000000E+00  1.00000000E+00  1.00000000E+00
  0.00000000E+00  1.00000000E+00  0.00000000E+00  0.00000000E+00  0.00000000E+00
  0.00000000E+00  0.00000000E+00  0.00000000E+00  0.00000000E+00  0.00000000E+00
  0.00000000E+00  0.00000000E+00
MxBond                                     I                3
NBond                                      I   N=          12
           3           3           3           3           3           3
           1           1           1           1           1           1
IBond                                      I   N=          36
           2           6           7           1           3           8
           2           4           9           3           5          10
           4           6          11           1           5          12
           1           0           0           2           0           0
           3           0           0           4           0           0
           5           0           0           6           0           0
RBond                                      R   N=          36
  1.50000000E+00  1.50000000E+00  1.00000000E+00  1.50000000E+00  1.50000000E+00
  1.00000000E+00  1.50000000E+00  1.50000000E+00  1.00000000E+00  1.50000000E+00
  1.50000000E+00  1.00000000E+00  1.50000000E+00  1.50000000E+00  1.00000000E+00
  1.50000000E+00  1.50000000E+00  1.00000000E+00  1.00000000E+00  0.00000000E+00
  0.00000000E+00  1.00000000E+00  0.00000000E+00  0.00000000E+00  1.00000000E+00
  0.00000000E+00  0.00000000E+00  1.00000000E+00  0.00000000E+00  0.00000000E+00
  1.00000000E+00  0.00000000E+00  0.00000000E+00  1.00000000E+00  0.00000000E+00
  0.00000000E+00
Virial Ratio                               R      2.002731008928798E+00
SCF Energy                                 R     -6.287135286018923E+02
Total Energy                               R     -6.287135286018923E+02
RMS Density                                R      2.107559859352772E-09
Job Status                                 I                1
Nuclear derivative order                   I                0
External E-field                           R   N=          35
  0.00000000E+00  0.00000000E+00  0.00000000E+00  0.00000000E+00  0.00000000E+00
  0.00000000E+00  0.00000000E+00  0.00000000E+00  0.00000000E+00  0.00000000E+00
  0.00000000E+00  0.00000000E+00  0.00000000E+00  0.00000000E+00  0.00000000E+00
  0.00000000E+00  0.00000000E+00  0.00000000E+00  0.00000000E+00  0.00000000E+00
  0.00000000E+00  0.00000000E+00  0.00000000E+00  0.00000000E+00  0.00000000E+00
  0.00000000E+00  0.00000000E+00  0.00000000E+00  0.00000000E+00  0.00000000E+00
  0.00000000E+00  0.00000000E+00  0.00000000E+00  0.00000000E+00  0.00000000E+00
IOpCl                                      I                0
IROHF                                      I                0
Alpha Orbital Energies                     R   N=         234
 -2.48186529E+01 -2.48186457E+01 -2.48111903E+01 -2.48111873E+01 -1.03518212E+01
 -1.03512181E+01 -1.03458527E+01 -1.03458427E+01 -1.02699911E+01 -1.02693816E+01
 -1.31525415E+00 -1.30480522E+00 -1.29450894E+00 -1.29104350E+00 -9.38680927E-01
 -8.23060208E-01 -8.14852218E-01 -7.01455983E-01 -6.95108020E-01 -6.28497400E-01
 -6.07811641E-01 -6.06300625E-01 -5.75477717E-01 -5.53096362E-01 -5.49090474E-01
 -5.23568470E-01 -5.07216047E-01 -4.99301031E-01 -4.97111983E-01 -4.94180116E-01
 -4.70519253E-01 -4.47809488E-01 -4.15403118E-01 -4.13962324E-01 -3.93686066E-01
 -2.95355496E-01 -2.83260099E-01 -3.88301567E-02 -2.51354213E-02 -1.43130194E-02
 -2.01038973E-04  2.02871098E-02  4.98421053E-02  5.62911139E-02  6.00706926E-02
  7.57141815E-02  8.60443403E-02  8.94974435E-02  9.19076526E-02  9.22080241E-02
  1.10418719E-01  1.18722173E-01  1.18799811E-01  1.26247172E-01  1.34489628E-01
  1.37907266E-01  1.39888870E-01  1.53294043E-01  1.54373529E-01  1.56440555E-01
  1.68237152E-01  1.80611990E-01  1.91341921E-01  1.98046517E-01  2.07655130E-01
  2.08459185E-01  2.27490375E-01  2.33808355E-01  2.61847150E-01  2.62428060E-01
  2.64638989E-01  2.75331030E-01  2.96142658E-01  3.04023771E-01  3.28255867E-01
  3.28449172E-01  3.42744206E-01  3.43493150E-01  3.55842654E-01  3.65426655E-01
  3.67563976E-01  3.74813396E-01  3.81594425E-01  3.96891481E-01  4.15638233E-01
  4.15754359E-01  4.17820364E-01  4.34394317E-01  4.44253872E-01  4.93078663E-01
  5.06812913E-01  5.19269704E-01  5.19686394E-01  5.37974981E-01  5.52877737E-01
  5.58792951E-01  5.62080672E-01  5.63449240E-01  5.73229655E-01  6.10575045E-01
  6.14492582E-01  6.17631475E-01  6.89822085E-01  7.07614148E-01  7.19174735E-01
  7.35998787E-01  7.73065515E-01  7.74009351E-01  8.03073879E-01  8.40428426E-01
  8.45623885E-01  8.58469480E-01  8.89014568E-01  9.42939116E-01  9.53183438E-01
  9.59169131E-01  9.66422106E-01  9.85693084E-01  1.03534048E+00  1.04312601E+00
  1.05796423E+00  1.09358181E+00  1.12906102E+00  1.15492782E+00  1.17733791E+00
  1.26765859E+00  1.30035826E+00  1.37915885E+00  1.41143376E+00  1.41789284E+00
  1.42123855E+00  1.42996769E+00  1.43896350E+00  1.43977460E+00  1.45460988E+00
  1.47705964E+00  1.49761594E+00  1.52972743E+00  1.54530678E+00  1.54589705E+00
  1.55446473E+00  1.56752556E+00  1.59596221E+00  1.61296287E+00  1.63894564E+00
  1.65694972E+00  1.73386015E+00  1.78553315E+00  1.79676386E+00  1.82451300E+00
  1.83708819E+00  1.86380519E+00  1.86544652E+00  1.93641082E+00  1.95062750E+00
  1.95529406E+00  1.98543188E+00  2.05256842E+00  2.05686638E+00  2.10273951E+00
  2.13664832E+00  2.17580602E+00  2.19986577E+00  2.21316114E+00  2.27647397E+00
  2.28071329E+00  2.40302320E+00  2.41114628E+00  2.58758954E+00  2.62327523E+00
  2.64465855E+00  2.70215904E+00  2.71075197E+00  2.73927586E+00  2.74231706E+00
  2.76845431E+00  2.84305216E+00  2.86258905E+00  3.07075266E+00  3.10759338E+00
  3.12174484E+00  3.14658140E+00  3.19998455E+00  3.22471672E+00  3.36271630E+00
  3.39953131E+00  3.56048650E+00  3.67873607E+00  3.74956839E+00  3.76122013E+00
  3.77277515E+00  3.77697526E+00  3.77948632E+00  3.78816318E+00  3.83788347E+00
  3.84928064E+00  3.91770348E+00  3.94628920E+00  3.97879665E+00  3.97892357E+00
  4.00635112E+00  4.03671624E+00  4.04464414E+00  4.10340219E+00  4.11303414E+00
  4.17541838E+00  4.23332519E+00  4.72734210E+00  4.85316258E+00  4.87487300E+00
  4.92385954E+00  4.99698749E+00  6.30331980E+00  6.34031899E+00  6.35652711E+00
  6.39396262E+00  6.39704208E+00  6.45919917E+00  6.49042958E+00  6.55819627E+00
  6.61461159E+00  6.80208641E+00  6.84506428E+00  6.92446628E+00  2.35130606E+01
  2.39277980E+01  2.39766927E+01  2.41124521E+01  2.41269748E+01  2.42558326E+01
  6.68882305E+01  6.69251162E+01  6.69405313E+01  6.69879215E+01
Alpha MO coefficients                      R   N=       54756
 -3.96108839E-06  1.62319301E-05  5.57755530E-05  6.57400061E-06  1.12509768E-12
 -2.92818719E-04 -2.87640982E-04 -1.69030376E-05 -4.26968684E-12  1.08802330E-02
 -5.04062891E-03 -3.08278402E-03  1.67136985E-11  7.50881455E-04 -5.34543604E-04
 -1.66043648E-03 -1.05899566E-11 -4.01651050E-05 -2.89413504E-12 -1.67571113E-12
  3.65022540E-05 -2.72361609E-05  3.96108846E-06 -1.62319304E-05 -5.57755515E-05
  6.57400074E-06  9.97172783E-13  2.92818719E-04  2.87640974E-04 -1.69030386E-05
 -3.78700243E-12 -1.08802329E-02  5.04062889E-03 -3.08278403E-03  1.19475163E-11
 -7.50881577E-04  5.34543643E-04 -1.66043647E-03 -6.93214197E-12  4.01651047E-05
 -2.80236423E-12  2.32640415E-12 -3.65022527E-05 -2.72361595E-05 -4.62559007E-06
  2.06986334E-05 -3.66912575E-07 -4.76848695E-05  7.91988401E-13 -3.33330207E-04
 -3.84719326E-05  1.96434964E-04 -3.20512100E-12  1.35890459E-02 -5.99711128E-04
  9.81734349E-03  5.17235534E-11  1.02314614E-03 -2.49472704E-03  4.08629110E-04
  1.89434840E-12 -6.23368717E-05 -1.96036098E-13  8.55501967E-12 -6.05586985E-05
 -5.08627526E-05  2.21925100E-05 -9.52273217E-05 -7.04229643E-05 -6.16169407E-05
  3.31952516E-13  7.79214204E-04 -1.33601218E-04  4.89014631E-06 -3.50976433E-12
 -1.18506912E-02 -1.48468588E-02 -6.77934617E-03  1.25585638E-11 -1.09970615E-02
  5.82370785E-04 -1.18876163E-03  2.26716087E-11 -4.93830116E-05  8.67450633E-12
  3.56724400E-12 -3.60030412E-05 -4.20118450E-05 -2.21925104E-05  9.52273233E-05
  7.04229682E-05 -6.16169420E-05  7.78595338E-13 -7.79214214E-04  1.33601216E-04
  4.89014366E-06 -4.05959989E-12  1.18506912E-02  1.48468589E-02 -6.77934624E-03
  2.23986947E-11  1.09970618E-02 -5.82370744E-04 -1.18876156E-03  1.30060674E-12
  4.93830153E-05  6.27382537E-12 -2.65767117E-12  3.60030399E-05 -4.20118435E-05
  4.62559022E-06 -2.06986341E-05  3.66913990E-07 -4.76848691E-05  9.42376634E-13