 Entering Gaussian System, Link 0=g16
 Initial command:
 /sw/cluster/pub/apps//g16/l1.exe "/data/natrosa/28453/Gau-5153.inp" -scrdir="/data/natrosa/28453/"
 Entering Link 1 = /sw/cluster/pub/apps//g16/l1.exe PID=      5154.
  
 Copyright (c) 1988,1990,1992,1993,1995,1998,2003,2009,2016,
            Gaussian, Inc.  All Rights Reserved.
  
 This is part of the Gaussian(R) 16 program.  It is based on
 the Gaussian(R) 09 system (copyright 2009, Gaussian, Inc.),
 the Gaussian(R) 03 system (copyright 2003, Gaussian, Inc.),
 the Gaussian(R) 98 system (copyright 1998, Gaussian, Inc.),
 the Gaussian(R) 94 system (copyright 1995, Gaussian, Inc.),
 the Gaussian 92(TM) system (copyright 1992, Gaussian, Inc.),
 the Gaussian 90(TM) system (copyright 1990, Gaussian, Inc.),
 the Gaussian 88(TM) system (copyright 1988, Gaussian, Inc.),
 the Gaussian 86(TM) system (copyright 1986, Carnegie Mellon
 University), and the Gaussian 82(TM) system (copyright 1983,
 Carnegie Mellon University). Gaussian is a federally registered
 trademark of Gaussian, Inc.
  
 This software contains proprietary and confidential information,
 including trade secrets, belonging to Gaussian, Inc.
  
 This software is provided under written license and may be
 used, copied, transmitted, or stored only in accord with that
 written license.
  
 The following legend is applicable only to US Government
 contracts under FAR:
  
                    RESTRICTED RIGHTS LEGEND
  
 Use, reproduction and disclosure by the US Government is
 subject to restrictions as set forth in subparagraphs (a)
 and (c) of the Commercial Computer Software - Restricted
 Rights clause in FAR 52.227-19.
  
 Gaussian, Inc.
 340 Quinnipiac St., Bldg. 40, Wallingford CT 06492
  
  
 ---------------------------------------------------------------
 Warning -- This program may not be used in any manner that
 competes with the business of Gaussian, Inc. or will provide
 assistance to any competitor of Gaussian, Inc.  The licensee
 of this program is prohibited from giving any competitor of
 Gaussian, Inc. access to this program.  By using this program,
 the user acknowledges that Gaussian, Inc. is engaged in the
 business of creating and licensing software in the field of
 computational chemistry and represents and warrants to the
 licensee that it is not a competitor of Gaussian, Inc. and that
 it will not use this program in any manner prohibited above.
 ---------------------------------------------------------------
  

 Cite this work as:
 Gaussian 16, Revision A.03,
 M. J. Frisch, G. W. Trucks, H. B. Schlegel, G. E. Scuseria, 
 M. A. Robb, J. R. Cheeseman, G. Scalmani, V. Barone, 
 G. A. Petersson, H. Nakatsuji, X. Li, M. Caricato, A. V. Marenich, 
 J. Bloino, B. G. Janesko, R. Gomperts, B. Mennucci, H. P. Hratchian, 
 J. V. Ortiz, A. F. Izmaylov, J. L. Sonnenberg, D. Williams-Young, 
 F. Ding, F. Lipparini, F. Egidi, J. Goings, B. Peng, A. Petrone, 
 T. Henderson, D. Ranasinghe, V. G. Zakrzewski, J. Gao, N. Rega, 
 G. Zheng, W. Liang, M. Hada, M. Ehara, K. Toyota, R. Fukuda, 
 J. Hasegawa, M. Ishida, T. Nakajima, Y. Honda, O. Kitao, H. Nakai, 
 T. Vreven, K. Throssell, J. A. Montgomery, Jr., J. E. Peralta, 
 F. Ogliaro, M. J. Bearpark, J. J. Heyd, E. N. Brothers, K. N. Kudin, 
 V. N. Staroverov, T. A. Keith, R. Kobayashi, J. Normand, 
 K. Raghavachari, A. P. Rendell, J. C. Burant, S. S. Iyengar, 
 J. Tomasi, M. Cossi, J. M. Millam, M. Klene, C. Adamo, R. Cammi, 
 J. W. Ochterski, R. L. Martin, K. Morokuma, O. Farkas, 
 J. B. Foresman, and D. J. Fox, Gaussian, Inc., Wallingford CT, 2016.
 
 ******************************************
 Gaussian 16:  ES64L-G16RevA.03 25-Dec-2016
                29-Jan-2025 
 ******************************************
 %chk=1-2-3-4-TtFB-ANI.chk
 --------------------------------------------------------
 #p opt freq PBE1PBE/6-311++G(d,p) density=current nosymm
 --------------------------------------------------------
 1/18=20,19=15,26=3,38=1/1,3;
 2/9=110,12=2,15=1,17=6,18=5,40=1/2;
 3/5=4,6=6,7=1111,11=2,25=1,30=1,71=1,74=-13/1,2,3;
 4//1;
 5/5=2,38=5/2;
 6/7=2,8=2,9=2,10=2,22=-1,28=1/1;
 7/30=1/1,2,3,16;
 1/18=20,19=15,26=3/3(2);
 2/9=110,15=1/2;
 99//99;
 2/9=110,15=1/2;
 3/5=4,6=6,7=1111,11=2,25=1,30=1,71=1,74=-13/1,2,3;
 4/5=5,16=3,69=1/1;
 5/5=2,38=5/2;
 7/30=1/1,2,3,16;
 1/18=20,19=15,26=3/3(-5);
 2/9=110,15=1/2;
 6/7=2,8=2,9=2,10=2,19=2,22=-1,28=1/1;
 99/9=1/99;
 Leave Link    1 at Wed Jan 29 14:40:55 2025, MaxMem=           0 cpu:               0.0 elap:               0.0
 (Enter /sw/cluster/pub/apps//g16/l101.exe)
 ---------------
 1 2 3 4 TtFB SP
 ---------------
 Symbolic Z-matrix:
 Charge = -1 Multiplicity = 2
 C                     1.20167   0.69489   0. 
 C                     1.20167  -0.69489  0. 
 C                     0.0013   -1.37812  0. 
 C                    -1.20649  -0.69384   0. 
 C                    -1.20649   0.69384   0. 
 C                     0.0013    1.37812   0. 
 H                     2.1273    1.25727  0. 
 H                     2.1273   -1.25727   0. 
 F                    -0.02336  -2.71083   0. 
 F                    -2.35749  -1.3511   0. 
 F                    -2.35749   1.3511    0. 
 F                    -0.02336   2.71083  0. 
 
 ITRead=  0  0  0  0  0  0  0  0  0  0  0  0
 MicOpt= -1 -1 -1 -1 -1 -1 -1 -1 -1 -1 -1 -1
 NAtoms=     12 NQM=       12 NQMF=       0 NMMI=      0 NMMIF=      0
                NMic=       0 NMicF=      0.
                    Isotopes and Nuclear Properties:
 (Nuclear quadrupole moments (NQMom) in fm**2, nuclear magnetic moments (NMagM)
  in nuclear magnetons)

  Atom         1           2           3           4           5           6           7           8           9          10
 IAtWgt=          12          12          12          12          12          12           1           1          19          19
 AtmWgt=  12.0000000  12.0000000  12.0000000  12.0000000  12.0000000  12.0000000   1.0078250   1.0078250  18.9984032  18.9984032
 NucSpn=           0           0           0           0           0           0           1           1           1           1
 AtZEff=  -0.0000000  -0.0000000  -0.0000000  -0.0000000  -0.0000000  -0.0000000  -0.0000000  -0.0000000  -0.0000000  -0.0000000
 NQMom=    0.0000000   0.0000000   0.0000000   0.0000000   0.0000000   0.0000000   0.0000000   0.0000000   0.0000000   0.0000000
 NMagM=    0.0000000   0.0000000   0.0000000   0.0000000   0.0000000   0.0000000   2.7928460   2.7928460   2.6288670   2.6288670
 AtZNuc=   6.0000000   6.0000000   6.0000000   6.0000000   6.0000000   6.0000000   1.0000000   1.0000000   9.0000000   9.0000000

  Atom        11          12
 IAtWgt=          19          19
 AtmWgt=  18.9984032  18.9984032
 NucSpn=           1           1
 AtZEff=  -0.0000000  -0.0000000
 NQMom=    0.0000000   0.0000000
 NMagM=    2.6288670   2.6288670
 AtZNuc=   9.0000000   9.0000000
 Leave Link  101 at Wed Jan 29 14:40:55 2025, MaxMem=   104857600 cpu:               0.0 elap:               0.0
 (Enter /sw/cluster/pub/apps//g16/l103.exe)

 GradGradGradGradGradGradGradGradGradGradGradGradGradGradGradGradGradGrad
 Berny optimization.
 Initialization pass.
                           ----------------------------
                           !    Initial Parameters    !
                           ! (Angstroms and Degrees)  !
 --------------------------                            --------------------------
 ! Name  Definition              Value          Derivative Info.                !
 --------------------------------------------------------------------------------
 ! R1    R(1,2)                  1.3898         estimate D2E/DX2                !
 ! R2    R(1,6)                  1.3812         estimate D2E/DX2                !
 ! R3    R(1,7)                  1.0831         estimate D2E/DX2                !
 ! R4    R(2,3)                  1.3812         estimate D2E/DX2                !
 ! R5    R(2,8)                  1.0831         estimate D2E/DX2                !
 ! R6    R(3,4)                  1.3882         estimate D2E/DX2                !
 ! R7    R(3,9)                  1.3329         estimate D2E/DX2                !
 ! R8    R(4,5)                  1.3877         estimate D2E/DX2                !
 ! R9    R(4,10)                 1.3254         estimate D2E/DX2                !
 ! R10   R(5,6)                  1.3882         estimate D2E/DX2                !
 ! R11   R(5,11)                 1.3254         estimate D2E/DX2                !
 ! R12   R(6,12)                 1.3329         estimate D2E/DX2                !
 ! A1    A(2,1,6)              119.6477         estimate D2E/DX2                !
 ! A2    A(2,1,7)              121.2812         estimate D2E/DX2                !
 ! A3    A(6,1,7)              119.0711         estimate D2E/DX2                !
 ! A4    A(1,2,3)              119.6477         estimate D2E/DX2                !
 ! A5    A(1,2,8)              121.2812         estimate D2E/DX2                !
 ! A6    A(3,2,8)              119.0711         estimate D2E/DX2                !
 ! A7    A(2,3,4)              120.8186         estimate D2E/DX2                !
 ! A8    A(2,3,9)              120.708          estimate D2E/DX2                !
 ! A9    A(4,3,9)              118.4734         estimate D2E/DX2                !
 ! A10   A(3,4,5)              119.5337         estimate D2E/DX2                !
 ! A11   A(3,4,10)             120.7387         estimate D2E/DX2                !
 ! A12   A(5,4,10)             119.7276         estimate D2E/DX2                !
 ! A13   A(4,5,6)              119.5337         estimate D2E/DX2                !
 ! A14   A(4,5,11)             119.7276         estimate D2E/DX2                !
 ! A15   A(6,5,11)             120.7387         estimate D2E/DX2                !
 ! A16   A(1,6,5)              120.8186         estimate D2E/DX2                !
 ! A17   A(1,6,12)             120.708          estimate D2E/DX2                !
 ! A18   A(5,6,12)             118.4734         estimate D2E/DX2                !
 ! D1    D(6,1,2,3)              0.0            estimate D2E/DX2                !
 ! D2    D(6,1,2,8)            180.0            estimate D2E/DX2                !
 ! D3    D(7,1,2,3)            180.0            estimate D2E/DX2                !
 ! D4    D(7,1,2,8)              0.0            estimate D2E/DX2                !
 ! D5    D(2,1,6,5)              0.0            estimate D2E/DX2                !
 ! D6    D(2,1,6,12)           180.0            estimate D2E/DX2                !
 ! D7    D(7,1,6,5)            180.0            estimate D2E/DX2                !
 ! D8    D(7,1,6,12)             0.0            estimate D2E/DX2                !
 ! D9    D(1,2,3,4)              0.0            estimate D2E/DX2                !
 ! D10   D(1,2,3,9)            180.0            estimate D2E/DX2                !
 ! D11   D(8,2,3,4)            180.0            estimate D2E/DX2                !
 ! D12   D(8,2,3,9)              0.0            estimate D2E/DX2                !
 ! D13   D(2,3,4,5)              0.0            estimate D2E/DX2                !
 ! D14   D(2,3,4,10)           180.0            estimate D2E/DX2                !
 ! D15   D(9,3,4,5)            180.0            estimate D2E/DX2                !
 ! D16   D(9,3,4,10)             0.0            estimate D2E/DX2                !
 ! D17   D(3,4,5,6)              0.0            estimate D2E/DX2                !
 ! D18   D(3,4,5,11)           180.0            estimate D2E/DX2                !
 ! D19   D(10,4,5,6)           180.0            estimate D2E/DX2                !
 ! D20   D(10,4,5,11)            0.0            estimate D2E/DX2                !
 ! D21   D(4,5,6,1)              0.0            estimate D2E/DX2                !
 ! D22   D(4,5,6,12)           180.0            estimate D2E/DX2                !
 ! D23   D(11,5,6,1)           180.0            estimate D2E/DX2                !
 ! D24   D(11,5,6,12)            0.0            estimate D2E/DX2                !
 --------------------------------------------------------------------------------
 Trust Radius=3.00D-01 FncErr=1.00D-07 GrdErr=1.00D-06 EigMax=2.50D+02 EigMin=1.00D-04
 Number of steps in this run=     64 maximum allowed number of steps=    100.
 GradGradGradGradGradGradGradGradGradGradGradGradGradGradGradGradGradGrad

 Leave Link  103 at Wed Jan 29 14:40:55 2025, MaxMem=   104857600 cpu:               0.0 elap:               0.0
 (Enter /sw/cluster/pub/apps//g16/l202.exe)
                          Input orientation:                          
 ---------------------------------------------------------------------
 Center     Atomic      Atomic             Coordinates (Angstroms)
 Number     Number       Type             X           Y           Z
 ---------------------------------------------------------------------
      1          6           0        1.201667    0.694892    0.000000
      2          6           0        1.201667   -0.694892   -0.000000
      3          6           0        0.001303   -1.378116   -0.000000
      4          6           0       -1.206485   -0.693845    0.000000
      5          6           0       -1.206485    0.693845    0.000000
      6          6           0        0.001303    1.378116    0.000000
      7          1           0        2.127300    1.257269   -0.000000
      8          1           0        2.127300   -1.257269    0.000000
      9          9           0       -0.023362   -2.710830    0.000000
     10          9           0       -2.357488   -1.351101   -0.000000
     11          9           0       -2.357488    1.351101    0.000000
     12          9           0       -0.023362    2.710830   -0.000000
 ---------------------------------------------------------------------
                    Distance matrix (angstroms):
                    1          2          3          4          5
     1  C    0.000000
     2  C    1.389784   0.000000
     3  C    2.395462   1.381185   0.000000
     4  C    2.779890   2.408152   1.388156   0.000000
     5  C    2.408152   2.779890   2.398286   1.387690   0.000000
     6  C    1.381185   2.395462   2.756233   2.398286   1.388156
     7  H    1.083081   2.160492   3.386018   3.862767   3.381060
     8  H    2.160492   1.083081   2.129429   3.381060   3.862767
     9  F    3.619342   2.358962   1.332942   2.338377   3.604385
    10  F    4.105323   3.619143   2.358946   1.325441   2.346618
    11  F    3.619143   4.105323   3.607288   2.346618   1.325441
    12  F    2.358962   3.619342   4.089021   3.604385   2.338377
                    6          7          8          9         10
     6  C    0.000000
     7  H    2.129429   0.000000
     8  H    3.386018   2.514537   0.000000
     9  F    4.089021   4.513441   2.595802   0.000000
    10  F    3.607288   5.188152   4.485770   2.701297   0.000000
    11  F    2.358946   4.485770   5.188152   4.684809   2.702203
    12  F    1.332942   2.595802   4.513441   5.421660   4.684809
                   11         12
    11  F    0.000000
    12  F    2.701297   0.000000
 Symmetry turned off by external request.
 Stoichiometry    C6H2F4(1-,2)
 Framework group  C2V[SGV(C6H2F4)]
 Deg. of freedom    11
 Full point group                 C2V     NOp   4
 Rotational constants (GHZ):           2.1030619           1.2018648           0.7647964
 Leave Link  202 at Wed Jan 29 14:40:55 2025, MaxMem=   104857600 cpu:               0.0 elap:               0.0
 (Enter /sw/cluster/pub/apps//g16/l301.exe)
 Standard basis: 6-311++G(d,p) (5D, 7F)
 Ernie: Thresh=  0.10000D-02 Tol=  0.10000D-05 Strict=F.
   234 basis functions,   378 primitive gaussians,   244 cartesian basis functions
    38 alpha electrons       37 beta electrons
       nuclear repulsion energy       526.0568167366 Hartrees.
 IExCor= 1009 DFT=T Ex+Corr=PBE1PBE ExCW=0 ScaHFX=  0.250000
 ScaDFX=  0.750000  0.750000  1.000000  1.000000 ScalE2=  1.000000  1.000000
 IRadAn=      5 IRanWt=     -1 IRanGd=            0 ICorTp=0 IEmpDi=  4
 NAtoms=   12 NActive=   12 NUniq=   12 SFac= 1.00D+00 NAtFMM=   60 NAOKFM=F Big=F
 Integral buffers will be    131072 words long.
 Raffenetti 2 integral format.
 Two-electron integral symmetry is turned off.
 Leave Link  301 at Wed Jan 29 14:40:55 2025, MaxMem=   104857600 cpu:               0.0 elap:               0.0
 (Enter /sw/cluster/pub/apps//g16/l302.exe)
 NPDir=0 NMtPBC=     1 NCelOv=     1 NCel=       1 NClECP=     1 NCelD=      1
         NCelK=      1 NCelE2=     1 NClLst=     1 CellRange=     0.0.
 One-electron integrals computed using PRISM.
 NBasis=   234 RedAO= T EigKep=  1.86D-06  NBF=   234
 NBsUse=   234 1.00D-06 EigRej= -1.00D+00 NBFU=   234
 Precomputing XC quadrature grid using
 IXCGrd= 4 IRadAn=           5 IRanWt=          -1 IRanGd=           0 AccXCQ= 0.00D+00.
 Generated NRdTot=       0 NPtTot=           0 NUsed=           0 NTot=          32
 NSgBfM=   244   244   244   244   244 MxSgAt=    12 MxSgA2=    12.
 Leave Link  302 at Wed Jan 29 14:40:55 2025, MaxMem=   104857600 cpu:               0.2 elap:               0.2
 (Enter /sw/cluster/pub/apps//g16/l303.exe)
 DipDrv:  MaxL=1.
 Leave Link  303 at Wed Jan 29 14:40:55 2025, MaxMem=   104857600 cpu:               0.0 elap:               0.0
 (Enter /sw/cluster/pub/apps//g16/l401.exe)
 ExpMin= 3.60D-02 ExpMax= 1.14D+04 ExpMxC= 1.72D+03 IAcc=3 IRadAn=         5 AccDes= 0.00D+00
 Harris functional with IExCor= 1009 and IRadAn=       5 diagonalized for initial guess.
 HarFok:  IExCor= 1009 AccDes= 0.00D+00 IRadAn=         5 IDoV= 1 UseB2=F ITyADJ=14
 ICtDFT=  3500011 ScaDFX=  1.000000  1.000000  1.000000  1.000000
 FoFCou: FMM=F IPFlag=           0 FMFlag=      100000 FMFlg1=           0
         NFxFlg=           0 DoJE=T BraDBF=F KetDBF=T FulRan=T
         wScrn=  0.000000 ICntrl=       500 IOpCl=  0 I1Cent=   200000004 NGrid=           0
         NMat0=    1 NMatS0=      1 NMatT0=    0 NMatD0=    1 NMtDS0=    0 NMtDT0=    0
 Symmetry not used in FoFCou.
 Harris En= -628.880000153931    
 JPrj=0 DoOrth=F DoCkMO=F.
 Initial guess <Sx>= 0.0000 <Sy>= 0.0000 <Sz>= 0.5000 <S**2>= 0.7500 S= 0.5000
 Leave Link  401 at Wed Jan 29 14:40:57 2025, MaxMem=   104857600 cpu:               1.7 elap:               1.7
 (Enter /sw/cluster/pub/apps//g16/l502.exe)
 Two-electron integral symmetry not used.
 UHF open shell SCF:
 Using DIIS extrapolation, IDIIS=  1040.
 NGot=   104857600 LenX=   104735324 LenY=   104675347
 Requested convergence on RMS density matrix=1.00D-08 within 128 cycles.
 Requested convergence on MAX density matrix=1.00D-06.
 Requested convergence on             energy=1.00D-06.
 No special actions if energy rises.
 Fock matrices will be formed incrementally for  20 cycles.

 Cycle   1  Pass 1  IDiag  1:
 FoFJK:  IHMeth= 1 ICntrl=       0 DoSepK=F KAlg= 0 I1Cent=           0 FoldK=F
 IRaf= 930000000 NMat=       1 IRICut=       1 DoRegI=T DoRafI=F ISym2E= 0 IDoP0=0 IntGTp=1.
 FoFCou: FMM=F IPFlag=           0 FMFlag=      100000 FMFlg1=           0
         NFxFlg=           0 DoJE=F BraDBF=F KetDBF=F FulRan=T
         wScrn=  0.000000 ICntrl=         0 IOpCl=  1 I1Cent=           0 NGrid=           0
         NMat0=    1 NMatS0=      1 NMatT0=    0 NMatD0=    1 NMtDS0=    0 NMtDT0=    0
 Symmetry not used in FoFCou.
 E= -628.451074873591    
 DIIS: error= 3.39D-02 at cycle   1 NSaved=   1.
 NSaved= 1 IEnMin= 1 EnMin= -628.451074873591     IErMin= 1 ErrMin= 3.39D-02
 ErrMax= 3.39D-02  0.00D+00 EMaxC= 1.00D-01 BMatC= 1.00D+00 BMatP= 1.00D+00
 IDIUse=3 WtCom= 6.61D-01 WtEn= 3.39D-01
 Coeff-Com:  0.100D+01
 Coeff-En:   0.100D+01
 Coeff:      0.100D+01
 Gap=     0.027 Goal=   None    Shift=    0.000
 Gap=     0.298 Goal=   None    Shift=    0.000
 GapD=    0.027 DampG=0.250 DampE=0.500 DampFc=0.2500 IDamp=-1.
 Damping current iteration by 2.50D-01
 RMSDP=8.00D-01 MaxDP=5.42D+01              OVMax= 9.95D-01

 Cycle   2  Pass 1  IDiag  1:
 RMSU=  1.99D-01    CP:  1.35D+00
 E= -628.545718712715     Delta-E=       -0.094643839124 Rises=F Damp=T
 DIIS: error= 1.50D-02 at cycle   2 NSaved=   2.
 NSaved= 2 IEnMin= 2 EnMin= -628.545718712715     IErMin= 2 ErrMin= 1.50D-02
 ErrMax= 1.50D-02  0.00D+00 EMaxC= 1.00D-01 BMatC= 2.32D-01 BMatP= 1.00D+00
 IDIUse=3 WtCom= 8.50D-01 WtEn= 1.50D-01
 Coeff-Com: -0.644D+00 0.164D+01
 Coeff-En:   0.000D+00 0.100D+01
 Coeff:     -0.548D+00 0.155D+01
 Gap=     0.024 Goal=   None    Shift=    0.000
 Gap=     0.204 Goal=   None    Shift=    0.000
 RMSDP=3.34D-01 MaxDP=1.59D+01 DE=-9.46D-02 OVMax= 2.92D-01

 Cycle   3  Pass 1  IDiag  1:
 RMSU=  1.88D-01    CP:  1.91D+00  2.38D+00
 E= -628.670702699675     Delta-E=       -0.124983986959 Rises=F Damp=F
 DIIS: error= 1.07D-02 at cycle   3 NSaved=   3.
 NSaved= 3 IEnMin= 3 EnMin= -628.670702699675     IErMin= 3 ErrMin= 1.07D-02
 ErrMax= 1.07D-02  0.00D+00 EMaxC= 1.00D-01 BMatC= 7.76D-02 BMatP= 2.32D-01
 IDIUse=3 WtCom= 8.93D-01 WtEn= 1.07D-01
 Coeff-Com: -0.214D+00 0.669D+00 0.545D+00
 Coeff-En:   0.000D+00 0.000D+00 0.100D+01
 Coeff:     -0.191D+00 0.597D+00 0.594D+00
 Gap=    -0.001 Goal=   None    Shift=    0.000
 Gap=     0.271 Goal=   None    Shift=    0.000
 RMSDP=5.11D-01 MaxDP=2.23D+01 DE=-1.25D-01 OVMax= 9.98D-01

 Cycle   4  Pass 1  IDiag  1:
 RMSU=  1.22D-02    CP:  1.08D+00  3.73D-03  4.17D-03
 E= -628.649104411486     Delta-E=        0.021598288189 Rises=F Damp=F
 DIIS: error= 1.28D-02 at cycle   4 NSaved=   4.
 NSaved= 4 IEnMin= 3 EnMin= -628.670702699675     IErMin= 3 ErrMin= 1.07D-02
 ErrMax= 1.28D-02  0.00D+00 EMaxC= 1.00D-01 BMatC= 1.13D-01 BMatP= 7.76D-02
 IDIUse=2 WtCom= 0.00D+00 WtEn= 1.00D+00
 Coeff-En:   0.000D+00 0.000D+00 0.658D+00 0.342D+00
 Coeff:      0.000D+00 0.000D+00 0.658D+00 0.342D+00
 Gap=    -0.000 Goal=   None    Shift=    0.000
 Gap=     0.244 Goal=   None    Shift=    0.000
 RMSDP=4.54D-01 MaxDP=2.68D+01 DE= 2.16D-02 OVMax= 1.00D+00

 Cycle   5  Pass 1  IDiag  1:
 RMSU=  2.31D-02    CP:  1.77D+00  2.24D+00  3.69D-01  5.97D-02
 E= -628.685941049889     Delta-E=       -0.036836638403 Rises=F Damp=F
 DIIS: error= 9.15D-03 at cycle   5 NSaved=   5.
 NSaved= 5 IEnMin= 5 EnMin= -628.685941049889     IErMin= 5 ErrMin= 9.15D-03
 ErrMax= 9.15D-03  0.00D+00 EMaxC= 1.00D-01 BMatC= 3.74D-02 BMatP= 7.76D-02
 IDIUse=3 WtCom= 9.09D-01 WtEn= 9.15D-02
 Coeff-Com:  0.297D-01-0.157D-01 0.355D+00 0.272D+00 0.359D+00
 Coeff-En:   0.000D+00 0.000D+00 0.000D+00 0.000D+00 0.100D+01
 Coeff:      0.270D-01-0.143D-01 0.323D+00 0.247D+00 0.417D+00
 Gap=     0.007 Goal=   None    Shift=    0.000
 Gap=     0.246 Goal=   None    Shift=    0.000
 RMSDP=4.21D-02 MaxDP=3.12D+00 DE=-3.68D-02 OVMax= 2.77D-02

 Cycle   6  Pass 1  IDiag  1:
 RMSU=  2.23D-03    CP:  1.72D+00  2.03D+00  3.89D-01  1.63D-01  9.67D-01
 E= -628.691893376046     Delta-E=       -0.005952326157 Rises=F Damp=F
 DIIS: error= 2.90D-03 at cycle   6 NSaved=   6.
 NSaved= 6 IEnMin= 6 EnMin= -628.691893376046     IErMin= 6 ErrMin= 2.90D-03
 ErrMax= 2.90D-03  0.00D+00 EMaxC= 1.00D-01 BMatC= 4.89D-03 BMatP= 3.74D-02
 IDIUse=3 WtCom= 9.71D-01 WtEn= 2.90D-02
 Coeff-Com:  0.389D-01-0.636D-01-0.938D-01 0.115D+00 0.438D-01 0.959D+00
 Coeff-En:   0.000D+00 0.000D+00 0.000D+00 0.000D+00 0.000D+00 0.100D+01
 Coeff:      0.378D-01-0.617D-01-0.911D-01 0.112D+00 0.425D-01 0.961D+00
 Gap=     0.018 Goal=   None    Shift=    0.000
 Gap=     0.250 Goal=   None    Shift=    0.000
 RMSDP=3.96D-02 MaxDP=2.51D+00 DE=-5.95D-03 OVMax= 4.50D-02

 Cycle   7  Pass 1  IDiag  1:
 RMSU=  3.73D-03    CP:  1.68D+00  1.84D+00  3.48D-01  2.39D-01  8.51D-01
                    CP:  2.87D+00
 E= -628.693325581247     Delta-E=       -0.001432205201 Rises=F Damp=F
 DIIS: error= 1.06D-03 at cycle   7 NSaved=   7.
 NSaved= 7 IEnMin= 7 EnMin= -628.693325581247     IErMin= 7 ErrMin= 1.06D-03
 ErrMax= 1.06D-03  0.00D+00 EMaxC= 1.00D-01 BMatC= 8.75D-04 BMatP= 4.89D-03
 IDIUse=3 WtCom= 9.89D-01 WtEn= 1.06D-02
 Coeff-Com:  0.640D-02-0.941D-02-0.842D-01 0.339D-01-0.101D+00 0.209D+00
 Coeff-Com:  0.945D+00
 Coeff-En:   0.000D+00 0.000D+00 0.000D+00 0.000D+00 0.000D+00 0.000D+00
 Coeff-En:   0.100D+01
 Coeff:      0.634D-02-0.931D-02-0.833D-01 0.336D-01-0.999D-01 0.207D+00
 Coeff:      0.946D+00
 Gap=     0.025 Goal=   None    Shift=    0.000
 Gap=     0.253 Goal=   None    Shift=    0.000
 RMSDP=2.13D-02 MaxDP=1.79D+00 DE=-1.43D-03 OVMax= 1.96D-02

 Cycle   8  Pass 1  IDiag  1:
 RMSU=  1.88D-03    CP:  1.65D+00  1.74D+00  3.68D-01  2.68D-01  7.53D-01
                    CP:  3.00D+00  1.60D+00
 E= -628.693611701975     Delta-E=       -0.000286120728 Rises=F Damp=F
 DIIS: error= 5.51D-04 at cycle   8 NSaved=   8.
 NSaved= 8 IEnMin= 8 EnMin= -628.693611701975     IErMin= 8 ErrMin= 5.51D-04
 ErrMax= 5.51D-04  0.00D+00 EMaxC= 1.00D-01 BMatC= 1.60D-04 BMatP= 8.75D-04
 IDIUse=3 WtCom= 9.94D-01 WtEn= 5.51D-03
 Coeff-Com: -0.420D-02 0.100D-01-0.142D-01 0.645D-02-0.674D-01-0.156D+00
 Coeff-Com:  0.518D+00 0.707D+00
 Coeff-En:   0.000D+00 0.000D+00 0.000D+00 0.000D+00 0.000D+00 0.000D+00
 Coeff-En:   0.000D+00 0.100D+01
 Coeff:     -0.418D-02 0.994D-02-0.142D-01 0.641D-02-0.670D-01-0.155D+00
 Coeff:      0.515D+00 0.709D+00
 Gap=     0.027 Goal=   None    Shift=    0.000
 Gap=     0.248 Goal=   None    Shift=    0.000
 RMSDP=9.07D-03 MaxDP=8.42D-01 DE=-2.86D-04 OVMax= 1.28D-02

 Cycle   9  Pass 1  IDiag  1:
 RMSU=  4.29D-04    CP:  1.64D+00  1.70D+00  3.88D-01  2.72D-01  6.90D-01
                    CP:  3.00D+00  1.97D+00  1.62D+00
 E= -628.693672875022     Delta-E=       -0.000061173047 Rises=F Damp=F
 DIIS: error= 1.46D-04 at cycle   9 NSaved=   9.
 NSaved= 9 IEnMin= 9 EnMin= -628.693672875022     IErMin= 9 ErrMin= 1.46D-04
 ErrMax= 1.46D-04  0.00D+00 EMaxC= 1.00D-01 BMatC= 1.37D-05 BMatP= 1.60D-04
 IDIUse=3 WtCom= 9.99D-01 WtEn= 1.46D-03
 Coeff-Com:  0.170D-02-0.155D-02 0.170D-01-0.112D-02 0.133D-01-0.655D-01
 Coeff-Com: -0.144D+00 0.934D-01 0.109D+01
 Coeff-En:   0.000D+00 0.000D+00 0.000D+00 0.000D+00 0.000D+00 0.000D+00
 Coeff-En:   0.000D+00 0.000D+00 0.100D+01
 Coeff:      0.169D-02-0.155D-02 0.170D-01-0.112D-02 0.133D-01-0.654D-01
 Coeff:     -0.144D+00 0.932D-01 0.109D+01
 Gap=     0.027 Goal=   None    Shift=    0.000
 Gap=     0.247 Goal=   None    Shift=    0.000
 RMSDP=3.94D-03 MaxDP=3.86D-01 DE=-6.12D-05 OVMax= 1.44D-02

 Cycle  10  Pass 1  IDiag  1:
 RMSU=  1.69D-04    CP:  1.64D+00  1.68D+00  3.98D-01  2.81D-01  6.41D-01
                    CP:  3.00D+00  2.30D+00  2.10D+00  2.27D+00
 E= -628.693687425283     Delta-E=       -0.000014550261 Rises=F Damp=F
 DIIS: error= 7.47D-05 at cycle  10 NSaved=  10.
 NSaved=10 IEnMin=10 EnMin= -628.693687425283     IErMin=10 ErrMin= 7.47D-05
 ErrMax= 7.47D-05  0.00D+00 EMaxC= 1.00D-01 BMatC= 3.20D-06 BMatP= 1.37D-05
 IDIUse=1 WtCom= 1.00D+00 WtEn= 0.00D+00
 Coeff-Com:  0.217D-02-0.305D-02 0.115D-01-0.947D-03 0.193D-01 0.777D-02
 Coeff-Com: -0.163D+00-0.842D-01 0.528D+00 0.683D+00
 Coeff:      0.217D-02-0.305D-02 0.115D-01-0.947D-03 0.193D-01 0.777D-02
 Coeff:     -0.163D+00-0.842D-01 0.528D+00 0.683D+00
 Gap=     0.027 Goal=   None    Shift=    0.000
 Gap=     0.247 Goal=   None    Shift=    0.000
 RMSDP=1.25D-03 MaxDP=8.59D-02 DE=-1.46D-05 OVMax= 5.70D-03

 Cycle  11  Pass 1  IDiag  1:
 RMSU=  9.16D-05    CP:  1.64D+00  1.68D+00  4.03D-01  2.85D-01  6.15D-01
                    CP:  3.00D+00  2.43D+00  2.31D+00  2.69D+00  1.74D+00
 E= -628.693690109132     Delta-E=       -0.000002683849 Rises=F Damp=F
 DIIS: error= 3.80D-05 at cycle  11 NSaved=  11.
 NSaved=11 IEnMin=11 EnMin= -628.693690109132     IErMin=11 ErrMin= 3.80D-05
 ErrMax= 3.80D-05  0.00D+00 EMaxC= 1.00D-01 BMatC= 9.60D-07 BMatP= 3.20D-06
 IDIUse=1 WtCom= 1.00D+00 WtEn= 0.00D+00
 Coeff-Com:  0.603D-03-0.803D-03 0.374D-02 0.162D-04 0.865D-02 0.238D-01
 Coeff-Com: -0.558D-01-0.728D-01 0.103D-01 0.294D+00 0.788D+00
 Coeff:      0.603D-03-0.803D-03 0.374D-02 0.162D-04 0.865D-02 0.238D-01
 Coeff:     -0.558D-01-0.728D-01 0.103D-01 0.294D+00 0.788D+00
 Gap=     0.027 Goal=   None    Shift=    0.000
 Gap=     0.247 Goal=   None    Shift=    0.000
 RMSDP=1.06D-03 MaxDP=4.46D-02 DE=-2.68D-06 OVMax= 3.77D-03

 Cycle  12  Pass 1  IDiag  1:
 RMSU=  2.36D-05    CP:  1.65D+00  1.69D+00  4.06D-01  2.90D-01  5.94D-01
                    CP:  3.00D+00  2.53D+00  2.47D+00  2.84D+00  2.43D+00
                    CP:  2.24D+00
 E= -628.693691304662     Delta-E=       -0.000001195530 Rises=F Damp=F
 DIIS: error= 1.25D-05 at cycle  12 NSaved=  12.
 NSaved=12 IEnMin=12 EnMin= -628.693691304662     IErMin=12 ErrMin= 1.25D-05
 ErrMax= 1.25D-05  0.00D+00 EMaxC= 1.00D-01 BMatC= 8.50D-08 BMatP= 9.60D-07
 IDIUse=1 WtCom= 1.00D+00 WtEn= 0.00D+00
 Coeff-Com: -0.122D-03 0.189D-03-0.419D-03 0.464D-04 0.841D-04 0.199D-02
 Coeff-Com:  0.214D-02-0.731D-03-0.148D-01-0.114D+00-0.100D+00 0.123D+01
 Coeff:     -0.122D-03 0.189D-03-0.419D-03 0.464D-04 0.841D-04 0.199D-02
 Coeff:      0.214D-02-0.731D-03-0.148D-01-0.114D+00-0.100D+00 0.123D+01
 Gap=     0.028 Goal=   None    Shift=    0.000
 Gap=     0.247 Goal=   None    Shift=    0.000
 RMSDP=7.32D-04 MaxDP=3.92D-02 DE=-1.20D-06 OVMax= 3.37D-03

 Cycle  13  Pass 1  IDiag  1:
 RMSU=  4.99D-05    CP:  1.65D+00  1.69D+00  4.07D-01  2.94D-01  5.76D-01
                    CP:  3.00D+00  2.62D+00  2.61D+00  2.80D+00  3.00D+00
                    CP:  3.00D+00  1.59D+00
 E= -628.693691721630     Delta-E=       -0.000000416968 Rises=F Damp=F
 DIIS: error= 1.23D-05 at cycle  13 NSaved=  13.
 NSaved=13 IEnMin=13 EnMin= -628.693691721630     IErMin=13 ErrMin= 1.23D-05
 ErrMax= 1.23D-05  0.00D+00 EMaxC= 1.00D-01 BMatC= 3.83D-08 BMatP= 8.50D-08
 IDIUse=1 WtCom= 1.00D+00 WtEn= 0.00D+00
 Coeff-Com:  0.239D-03-0.303D-03-0.449D-04-0.153D-03-0.648D-03-0.410D-02
 Coeff-Com:  0.303D-02 0.104D-01 0.258D-01-0.482D-01-0.274D+00 0.114D-01
 Coeff-Com:  0.128D+01
 Coeff:      0.239D-03-0.303D-03-0.449D-04-0.153D-03-0.648D-03-0.410D-02
 Coeff:      0.303D-02 0.104D-01 0.258D-01-0.482D-01-0.274D+00 0.114D-01
 Coeff:      0.128D+01
 Gap=     0.028 Goal=   None    Shift=    0.000
 Gap=     0.247 Goal=   None    Shift=    0.000
 RMSDP=4.46D-04 MaxDP=2.36D-02 DE=-4.17D-07 OVMax= 2.16D-03

 Cycle  14  Pass 1  IDiag  1:
 RMSU=  6.33D-05    CP:  1.65D+00  1.69D+00  4.08D-01  2.98D-01  5.64D-01
                    CP:  3.00D+00  2.67D+00  2.70D+00  2.76D+00  3.00D+00
                    CP:  3.00D+00  2.06D+00  2.61D+00
 E= -628.693691834723     Delta-E=       -0.000000113093 Rises=F Damp=F
 DIIS: error= 3.56D-06 at cycle  14 NSaved=  14.
 NSaved=14 IEnMin=14 EnMin= -628.693691834723     IErMin=14 ErrMin= 3.56D-06
 ErrMax= 3.56D-06  0.00D+00 EMaxC= 1.00D-01 BMatC= 6.95D-09 BMatP= 3.83D-08
 IDIUse=1 WtCom= 1.00D+00 WtEn= 0.00D+00
 Coeff-Com:  0.263D-04-0.303D-04 0.309D-03 0.735D-05 0.360D-03-0.908D-05
 Coeff-Com: -0.241D-02-0.455D-03 0.139D-01 0.522D-02-0.262D-01-0.230D-01
 Coeff-Com: -0.197D+00 0.123D+01
 Coeff:      0.263D-04-0.303D-04 0.309D-03 0.735D-05 0.360D-03-0.908D-05
 Coeff:     -0.241D-02-0.455D-03 0.139D-01 0.522D-02-0.262D-01-0.230D-01
 Coeff:     -0.197D+00 0.123D+01
 Gap=     0.028 Goal=   None    Shift=    0.000
 Gap=     0.247 Goal=   None    Shift=    0.000
 RMSDP=1.33D-04 MaxDP=5.82D-03 DE=-1.13D-07 OVMax= 4.76D-04

 Cycle  15  Pass 1  IDiag  1:
 RMSU=  2.79D-06    CP:  1.65D+00  1.69D+00  4.08D-01  2.98D-01  5.61D-01
                    CP:  3.00D+00  2.68D+00  2.72D+00  2.75D+00  3.00D+00
                    CP:  3.00D+00  2.18D+00  2.94D+00  1.21D+00
 E= -628.693691843328     Delta-E=       -0.000000008605 Rises=F Damp=F
 DIIS: error= 4.63D-07 at cycle  15 NSaved=  15.
 NSaved=15 IEnMin=15 EnMin= -628.693691843328     IErMin=15 ErrMin= 4.63D-07
 ErrMax= 4.63D-07  0.00D+00 EMaxC= 1.00D-01 BMatC= 1.10D-10 BMatP= 6.95D-09
 IDIUse=1 WtCom= 1.00D+00 WtEn= 0.00D+00
 Coeff-Com: -0.104D-04 0.106D-04 0.348D-04 0.116D-04 0.967D-04 0.357D-03
 Coeff-Com: -0.640D-03-0.988D-03-0.139D-03 0.384D-02 0.143D-01 0.612D-03
 Coeff-Com: -0.132D+00 0.131D+00 0.984D+00
 Coeff:     -0.104D-04 0.106D-04 0.348D-04 0.116D-04 0.967D-04 0.357D-03
 Coeff:     -0.640D-03-0.988D-03-0.139D-03 0.384D-02 0.143D-01 0.612D-03
 Coeff:     -0.132D+00 0.131D+00 0.984D+00
 Gap=     0.028 Goal=   None    Shift=    0.000
 Gap=     0.247 Goal=   None    Shift=    0.000
 RMSDP=2.73D-05 MaxDP=1.65D-03 DE=-8.61D-09 OVMax= 1.24D-04

 Cycle  16  Pass 1  IDiag  1:
 RMSU=  6.81D-07    CP:  1.65D+00  1.69D+00  4.08D-01  2.98D-01  5.60D-01
                    CP:  3.00D+00  2.69D+00  2.73D+00  2.76D+00  3.00D+00
                    CP:  3.00D+00  2.20D+00  2.99D+00  1.25D+00  1.21D+00
 E= -628.693691843683     Delta-E=       -0.000000000354 Rises=F Damp=F
 DIIS: error= 1.26D-07 at cycle  16 NSaved=  16.
 NSaved=16 IEnMin=16 EnMin= -628.693691843683     IErMin=16 ErrMin= 1.26D-07
 ErrMax= 1.26D-07  0.00D+00 EMaxC= 1.00D-01 BMatC= 1.12D-11 BMatP= 1.10D-10
 IDIUse=1 WtCom= 1.00D+00 WtEn= 0.00D+00
 Coeff-Com:  0.536D-06-0.118D-05-0.170D-04 0.109D-05-0.110D-04 0.113D-04
 Coeff-Com:  0.136D-04-0.257D-04-0.584D-03 0.429D-04 0.161D-02 0.173D-02
 Coeff-Com:  0.131D-01-0.757D-01 0.117D-01 0.105D+01
 Coeff:      0.536D-06-0.118D-05-0.170D-04 0.109D-05-0.110D-04 0.113D-04
 Coeff:      0.136D-04-0.257D-04-0.584D-03 0.429D-04 0.161D-02 0.173D-02
 Coeff:      0.131D-01-0.757D-01 0.117D-01 0.105D+01
 Gap=     0.028 Goal=   None    Shift=    0.000
 Gap=     0.247 Goal=   None    Shift=    0.000
 RMSDP=4.74D-06 MaxDP=3.74D-04 DE=-3.54D-10 OVMax= 1.71D-05

 Cycle  17  Pass 1  IDiag  1:
 RMSU=  3.47D-07    CP:  1.65D+00  1.69D+00  4.08D-01  2.98D-01  5.60D-01
                    CP:  3.00D+00  2.69D+00  2.73D+00  2.76D+00  3.00D+00
                    CP:  3.00D+00  2.19D+00  2.97D+00  1.25D+00  1.26D+00
                    CP:  2.13D+00
 E= -628.693691843707     Delta-E=       -0.000000000025 Rises=F Damp=F
 DIIS: error= 9.65D-08 at cycle  17 NSaved=  17.
 NSaved=17 IEnMin=17 EnMin= -628.693691843707     IErMin=17 ErrMin= 9.65D-08
 ErrMax= 9.65D-08  0.00D+00 EMaxC= 1.00D-01 BMatC= 2.40D-12 BMatP= 1.12D-11
 IDIUse=1 WtCom= 1.00D+00 WtEn= 0.00D+00
 Coeff-Com:  0.285D-06-0.343D-06-0.438D-05-0.117D-07-0.483D-05 0.216D-05
 Coeff-Com:  0.407D-04 0.949D-05-0.223D-03-0.194D-03 0.194D-03 0.917D-03
 Coeff-Com:  0.899D-05-0.123D-01-0.433D-01 0.172D+00 0.883D+00
 Coeff:      0.285D-06-0.343D-06-0.438D-05-0.117D-07-0.483D-05 0.216D-05
 Coeff:      0.407D-04 0.949D-05-0.223D-03-0.194D-03 0.194D-03 0.917D-03
 Coeff:      0.899D-05-0.123D-01-0.433D-01 0.172D+00 0.883D+00
 Gap=     0.028 Goal=   None    Shift=    0.000
 Gap=     0.247 Goal=   None    Shift=    0.000
 RMSDP=2.84D-06 MaxDP=2.12D-04 DE=-2.46D-11 OVMax= 1.81D-05

 Cycle  18  Pass 1  IDiag  1:
 RMSU=  1.31D-07    CP:  1.65D+00  1.69D+00  4.09D-01  2.98D-01  5.60D-01
                    CP:  3.00D+00  2.69D+00  2.73D+00  2.76D+00  3.00D+00
                    CP:  3.00D+00  2.19D+00  2.98D+00  1.26D+00  1.31D+00
                    CP:  3.00D+00  2.37D+00
 E= -628.693691843721     Delta-E=       -0.000000000014 Rises=F Damp=F
 DIIS: error= 7.97D-08 at cycle  18 NSaved=  18.
 NSaved=18 IEnMin=18 EnMin= -628.693691843721     IErMin=18 ErrMin= 7.97D-08
 ErrMax= 7.97D-08  0.00D+00 EMaxC= 1.00D-01 BMatC= 7.29D-13 BMatP= 2.40D-12
 IDIUse=1 WtCom= 1.00D+00 WtEn= 0.00D+00
 Coeff-Com:  0.191D-06-0.232D-06-0.270D-05 0.266D-07-0.290D-05 0.125D-05
 Coeff-Com:  0.241D-04 0.490D-05-0.129D-03-0.128D-03 0.814D-04 0.641D-03
 Coeff-Com:  0.274D-03-0.795D-02-0.278D-01 0.108D+00 0.561D+00 0.366D+00
 Coeff:      0.191D-06-0.232D-06-0.270D-05 0.266D-07-0.290D-05 0.125D-05
 Coeff:      0.241D-04 0.490D-05-0.129D-03-0.128D-03 0.814D-04 0.641D-03
 Coeff:      0.274D-03-0.795D-02-0.278D-01 0.108D+00 0.561D+00 0.366D+00
 Gap=     0.028 Goal=   None    Shift=    0.000
 Gap=     0.247 Goal=   None    Shift=    0.000
 RMSDP=4.75D-07 MaxDP=1.71D-05 DE=-1.39D-11 OVMax= 6.54D-06

 Cycle  19  Pass 1  IDiag  1:
 RMSU=  1.78D-07    CP:  1.65D+00  1.69D+00  4.09D-01  2.98D-01  5.60D-01
                    CP:  3.00D+00  2.69D+00  2.73D+00  2.76D+00  3.00D+00
                    CP:  3.00D+00  2.19D+00  2.98D+00  1.26D+00  1.34D+00
                    CP:  3.00D+00  3.00D+00  3.00D+00
 E= -628.693691843721     Delta-E=       -0.000000000000 Rises=F Damp=F
 DIIS: error= 8.56D-08 at cycle  19 NSaved=  19.
 NSaved=19 IEnMin=19 EnMin= -628.693691843721     IErMin=18 ErrMin= 7.97D-08
 ErrMax= 8.56D-08  0.00D+00 EMaxC= 1.00D-01 BMatC= 8.15D-13 BMatP= 7.29D-13
 IDIUse=1 WtCom= 1.00D+00 WtEn= 0.00D+00
 Large coefficients: NSaved= 19 BigCof=    0.00 CofMax=   10.00 Det=-3.24D-15
 Inversion failed.  Reducing to 18 matrices.
 Large coefficients: NSaved= 18 BigCof=    0.00 CofMax=   10.00 Det=-3.24D-15
 Inversion failed.  Reducing to 17 matrices.
 Large coefficients: NSaved= 17 BigCof=    0.00 CofMax=   10.00 Det=-3.24D-15
 Inversion failed.  Reducing to 16 matrices.
 Large coefficients: NSaved= 16 BigCof=    0.00 CofMax=   10.00 Det=-3.24D-15
 Inversion failed.  Reducing to 15 matrices.
 Large coefficients: NSaved= 15 BigCof=   10.94 CofMax=   10.00 Det=-3.74D-15
 Inversion failed.  Reducing to 14 matrices.
 Large coefficients: NSaved= 14 BigCof=   10.78 CofMax=   10.00 Det=-3.83D-15
 Inversion failed.  Reducing to 13 matrices.
 Large coefficients: NSaved= 13 BigCof=   10.78 CofMax=   10.00 Det=-3.83D-15
 Inversion failed.  Reducing to 12 matrices.
 Large coefficients: NSaved= 12 BigCof=   10.82 CofMax=   10.00 Det=-3.83D-15
 Inversion failed.  Reducing to 11 matrices.
 Large coefficients: NSaved= 11 BigCof=   10.82 CofMax=   10.00 Det=-3.84D-15
 Inversion failed.  Reducing to 10 matrices.
 Coeff-Com: -0.117D-03-0.292D-03 0.566D-03 0.302D-02-0.446D-02-0.226D-01
 Coeff-Com: -0.523D-01 0.431D+00 0.880D+01-0.816D+01
 Coeff:     -0.117D-03-0.292D-03 0.566D-03 0.302D-02-0.446D-02-0.226D-01
 Coeff:     -0.523D-01 0.431D+00 0.880D+01-0.816D+01
 Gap=     0.028 Goal=   None    Shift=    0.000
 Gap=     0.247 Goal=   None    Shift=    0.000
 RMSDP=3.52D-06 MaxDP=1.50D-04 DE=-2.27D-13 OVMax= 5.70D-05

 Cycle  20  Pass 1  IDiag  1:
 RMSU=  1.76D-07    CP:  1.65D+00  1.69D+00  4.09D-01  2.98D-01  5.60D-01
                    CP:  3.00D+00  2.69D+00  2.73D+00  2.76D+00  3.00D+00
                    CP:  3.00D+00  2.19D+00  2.98D+00  1.25D+00  1.10D+00
                    CP: -4.82D-01 -2.63D+00 -1.33D+00  1.04D+00
 E= -628.693691843679     Delta-E=        0.000000000042 Rises=F Damp=F
 DIIS: error= 3.44D-08 at cycle  20 NSaved=  11.
 NSaved=11 IEnMin=10 EnMin= -628.693691843721     IErMin=11 ErrMin= 3.44D-08
 ErrMax= 3.44D-08  0.00D+00 EMaxC= 1.00D-01 BMatC= 2.12D-13 BMatP= 7.29D-13
 IDIUse=1 WtCom= 1.00D+00 WtEn= 0.00D+00
 Coeff-Com: -0.305D-04-0.155D-03 0.293D-03 0.247D-02-0.293D-02-0.307D-02
 Coeff-Com: -0.516D-01-0.279D-01 0.418D+01-0.415D+01 0.105D+01
 Coeff:     -0.305D-04-0.155D-03 0.293D-03 0.247D-02-0.293D-02-0.307D-02
 Coeff:     -0.516D-01-0.279D-01 0.418D+01-0.415D+01 0.105D+01
 Gap=     0.028 Goal=   None    Shift=    0.000
 Gap=     0.247 Goal=   None    Shift=    0.000
 RMSDP=1.64D-06 MaxDP=6.73D-05 DE= 4.21D-11 OVMax= 2.56D-05

 Cycle  21  Pass 1  IDiag  1:
 Restarting incremental Fock formation.
 E= -628.693691843664     Delta-E=        0.000000000015 Rises=F Damp=F
 DIIS: error= 1.14D-08 at cycle  21 NSaved=  12.
 NSaved=12 IEnMin=10 EnMin= -628.693691843721     IErMin=12 ErrMin= 1.14D-08
 ErrMax= 1.14D-08  0.00D+00 EMaxC= 1.00D-01 BMatC= 1.01D-13 BMatP= 2.12D-13
 IDIUse=1 WtCom= 1.00D+00 WtEn= 0.00D+00
 Coeff-Com:  0.693D-04 0.117D-03-0.249D-03-0.192D-04-0.270D-04 0.132D-01
 Coeff-Com: -0.396D-02-0.263D+00-0.112D+01 0.855D+00 0.739D+00 0.786D+00
 Coeff:      0.693D-04 0.117D-03-0.249D-03-0.192D-04-0.270D-04 0.132D-01
 Coeff:     -0.396D-02-0.263D+00-0.112D+01 0.855D+00 0.739D+00 0.786D+00
 Gap=     0.028 Goal=   None    Shift=    0.000
 Gap=     0.247 Goal=   None    Shift=    0.000
 RMSDP=8.90D-07 MaxDP=4.44D-05 DE= 1.48D-11 OVMax= 1.20D-05

 Cycle  22  Pass 1  IDiag  1:
 RMSU=  7.81D-07    CP:  1.00D+00
 E= -628.693691843663     Delta-E=        0.000000000002 Rises=F Damp=F
 DIIS: error= 2.20D-09 at cycle  22 NSaved=  13.
 NSaved=13 IEnMin=10 EnMin= -628.693691843721     IErMin=13 ErrMin= 2.20D-09
 ErrMax= 2.20D-09  0.00D+00 EMaxC= 1.00D-01 BMatC= 2.98D-15 BMatP= 1.01D-13
 IDIUse=1 WtCom= 1.00D+00 WtEn= 0.00D+00
 Coeff-Com:  0.215D-04 0.338D-04-0.779D-04-0.158D-03 0.161D-03 0.404D-02
 Coeff-Com:  0.815D-03-0.851D-01-0.520D+00 0.443D+00 0.174D+00 0.236D+00
 Coeff-Com:  0.747D+00
 Coeff:      0.215D-04 0.338D-04-0.779D-04-0.158D-03 0.161D-03 0.404D-02
 Coeff:      0.815D-03-0.851D-01-0.520D+00 0.443D+00 0.174D+00 0.236D+00
 Coeff:      0.747D+00
 Gap=     0.028 Goal=   None    Shift=    0.000
 Gap=     0.247 Goal=   None    Shift=    0.000
 RMSDP=1.46D-07 MaxDP=1.69D-05 DE= 1.59D-12 OVMax= 6.07D-07

 Cycle  23  Pass 1  IDiag  1:
 RMSU=  1.04D-07    CP:  1.00D+00  1.07D+00
 E= -628.693691843664     Delta-E=       -0.000000000001 Rises=F Damp=F
 DIIS: error= 2.22D-09 at cycle  23 NSaved=  14.
 NSaved=14 IEnMin=10 EnMin= -628.693691843721     IErMin=13 ErrMin= 2.20D-09
 ErrMax= 2.22D-09  0.00D+00 EMaxC= 1.00D-01 BMatC= 1.89D-15 BMatP= 2.98D-15
 IDIUse=1 WtCom= 1.00D+00 WtEn= 0.00D+00
 Coeff-Com:  0.194D-05-0.433D-07-0.694D-05-0.101D-03 0.110D-03 0.432D-03
 Coeff-Com:  0.974D-03-0.133D-01-0.151D+00 0.148D+00-0.981D-02 0.221D-01
 Coeff-Com:  0.505D+00 0.498D+00
 Coeff:      0.194D-05-0.433D-07-0.694D-05-0.101D-03 0.110D-03 0.432D-03
 Coeff:      0.974D-03-0.133D-01-0.151D+00 0.148D+00-0.981D-02 0.221D-01
 Coeff:      0.505D+00 0.498D+00
 Gap=     0.028 Goal=   None    Shift=    0.000
 Gap=     0.247 Goal=   None    Shift=    0.000
 RMSDP=5.08D-08 MaxDP=5.82D-06 DE=-9.09D-13 OVMax= 1.05D-07

 Cycle  24  Pass 1  IDiag  1:
 RMSU=  3.41D-08    CP:  1.00D+00  1.09D+00  1.07D+00
 E= -628.693691843664     Delta-E=       -0.000000000001 Rises=F Damp=F
 DIIS: error= 2.05D-10 at cycle  24 NSaved=  15.
 NSaved=15 IEnMin=10 EnMin= -628.693691843721     IErMin=15 ErrMin= 2.05D-10
 ErrMax= 2.05D-10  0.00D+00 EMaxC= 1.00D-01 BMatC= 3.54D-17 BMatP= 1.89D-15
 IDIUse=1 WtCom= 1.00D+00 WtEn= 0.00D+00
 Coeff-Com: -0.388D-05-0.565D-05 0.104D-04 0.250D-04-0.251D-04-0.581D-03
 Coeff-Com: -0.162D-03 0.125D-01 0.771D-01-0.637D-01-0.302D-01-0.379D-01
 Coeff-Com: -0.784D-01 0.505D-01 0.107D+01
 Coeff:     -0.388D-05-0.565D-05 0.104D-04 0.250D-04-0.251D-04-0.581D-03
 Coeff:     -0.162D-03 0.125D-01 0.771D-01-0.637D-01-0.302D-01-0.379D-01
 Coeff:     -0.784D-01 0.505D-01 0.107D+01
 Gap=     0.028 Goal=   None    Shift=    0.000
 Gap=     0.247 Goal=   None    Shift=    0.000
 RMSDP=3.03D-08 MaxDP=2.95D-06 DE=-6.82D-13 OVMax= 2.74D-08

 Cycle  25  Pass 1  IDiag  1:
 RMSU=  4.62D-09    CP:  1.00D+00  1.09D+00  1.20D+00  1.07D+00
 E= -628.693691843666     Delta-E=       -0.000000000001 Rises=F Damp=F
 DIIS: error= 1.13D-10 at cycle  25 NSaved=  16.
 NSaved=16 IEnMin=10 EnMin= -628.693691843721     IErMin=16 ErrMin= 1.13D-10
 ErrMax= 1.13D-10  0.00D+00 EMaxC= 1.00D-01 BMatC= 5.96D-18 BMatP= 3.54D-17
 IDIUse=1 WtCom= 1.00D+00 WtEn= 0.00D+00
 Large coefficients: NSaved= 16 BigCof=    0.00 CofMax=   10.00 Det=-1.39D-17
 Inversion failed.  Reducing to 15 matrices.
 Coeff-Com:  0.540D-06 0.755D-06 0.459D-05-0.710D-05-0.187D-04-0.101D-04
 Coeff-Com:  0.569D-03 0.103D-02-0.145D-02 0.673D-03-0.637D-03-0.272D-01
 Coeff-Com: -0.459D-02 0.243D+00 0.789D+00
 Coeff:      0.540D-06 0.755D-06 0.459D-05-0.710D-05-0.187D-04-0.101D-04
 Coeff:      0.569D-03 0.103D-02-0.145D-02 0.673D-03-0.637D-03-0.272D-01
 Coeff:     -0.459D-02 0.243D+00 0.789D+00
 Gap=     0.028 Goal=   None    Shift=    0.000
 Gap=     0.247 Goal=   None    Shift=    0.000
 RMSDP=4.56D-09 MaxDP=2.70D-07 DE=-1.14D-12 OVMax= 1.48D-08

 SCF Done:  E(UPBE1PBE) =  -628.693691844     A.U. after   25 cycles
            NFock= 25  Conv=0.46D-08     -V/T= 2.0025
 <Sx>= 0.0000 <Sy>= 0.0000 <Sz>= 0.5000 <S**2>= 0.7500 S= 0.5000
 <L.S>=  0.00000000000    
 KE= 6.270958844140D+02 PE=-2.546535084786D+03 EE= 7.646886917912D+02
 Annihilation of the first spin contaminant:
 S**2 before annihilation     0.7500,   after     0.7500
 Leave Link  502 at Wed Jan 29 14:43:34 2025, MaxMem=   104857600 cpu:             156.8 elap:             157.1
 (Enter /sw/cluster/pub/apps//g16/l601.exe)
 Copying SCF densities to generalized density rwf, IOpCl= 1 IROHF=0.

 **********************************************************************

            Population analysis using the SCF density.

 **********************************************************************

 Alpha  occ. eigenvalues --  -24.71183 -24.71182 -24.69610 -24.69610 -10.23560
 Alpha  occ. eigenvalues --  -10.23500 -10.22666 -10.22664 -10.14344 -10.14283
 Alpha  occ. eigenvalues --   -1.20790  -1.19580  -1.18025  -1.17868  -0.81898
 Alpha  occ. eigenvalues --   -0.70296  -0.69646  -0.58439  -0.57930  -0.51647
 Alpha  occ. eigenvalues --   -0.49347  -0.49341  -0.46293  -0.44304  -0.43016
 Alpha  occ. eigenvalues --   -0.41246  -0.39496  -0.38806  -0.37970  -0.37709
 Alpha  occ. eigenvalues --   -0.35961  -0.32945  -0.30265  -0.29216  -0.27508
 Alpha  occ. eigenvalues --   -0.17699  -0.16506   0.05366
 Alpha virt. eigenvalues --    0.08136   0.08360   0.09352   0.09355   0.13042
 Alpha virt. eigenvalues --    0.13962   0.14890   0.16513   0.17223   0.18028
 Alpha virt. eigenvalues --    0.18221   0.18438   0.20225   0.21200   0.21858
 Alpha virt. eigenvalues --    0.21878   0.22001   0.23450   0.23594   0.23936
 Alpha virt. eigenvalues --    0.24053   0.24945   0.27016   0.27690   0.28174
 Alpha virt. eigenvalues --    0.28416   0.28870   0.29342   0.33083   0.33433
 Alpha virt. eigenvalues --    0.33474   0.35820   0.37010   0.37576   0.40299
 Alpha virt. eigenvalues --    0.40340   0.42035   0.42409   0.43782   0.44017
 Alpha virt. eigenvalues --    0.45878   0.46165   0.46516   0.47233   0.48726
 Alpha virt. eigenvalues --    0.49057   0.50419   0.50926   0.51253   0.53970
 Alpha virt. eigenvalues --    0.54999   0.60245   0.60374   0.60858   0.63032
 Alpha virt. eigenvalues --    0.63557   0.67076   0.67292   0.67471   0.67578
 Alpha virt. eigenvalues --    0.68805   0.72661   0.73029   0.73053   0.80501
 Alpha virt. eigenvalues --    0.82390   0.83259   0.84798   0.88185   0.89482
 Alpha virt. eigenvalues --    0.92109   0.95868   0.96792   0.97663   1.00450
 Alpha virt. eigenvalues --    1.06253   1.06663   1.07260   1.07785   1.10941
 Alpha virt. eigenvalues --    1.14743   1.15617   1.16605   1.21168   1.25077
 Alpha virt. eigenvalues --    1.27068   1.29464   1.38436   1.41069   1.48353
 Alpha virt. eigenvalues --    1.52361   1.52389   1.52913   1.53735   1.54674
 Alpha virt. eigenvalues --    1.54768   1.55890   1.57802   1.61611   1.64284
 Alpha virt. eigenvalues --    1.64777   1.64801   1.67561   1.68139   1.71103
 Alpha virt. eigenvalues --    1.73260   1.76291   1.78138   1.85463   1.90325
 Alpha virt. eigenvalues --    1.91618   1.93986   1.96409   1.98353   1.98543
 Alpha virt. eigenvalues --    2.05673   2.06297   2.07730   2.10357   2.16655
 Alpha virt. eigenvalues --    2.17112   2.22171   2.26416   2.28897   2.31500
 Alpha virt. eigenvalues --    2.33167   2.39462   2.39701   2.52144   2.53813
 Alpha virt. eigenvalues --    2.70445   2.74773   2.77238   2.82836   2.83577
 Alpha virt. eigenvalues --    2.86215   2.87271   2.89307   2.96395   2.98361
 Alpha virt. eigenvalues --    3.19092   3.22607   3.24101   3.26073   3.31608
 Alpha virt. eigenvalues --    3.34274   3.48238   3.52091   3.68239   3.79667
 Alpha virt. eigenvalues --    3.86695   3.86757   3.88104   3.88697   3.89266
 Alpha virt. eigenvalues --    3.89954   3.94615   3.96188   4.03529   4.05452
 Alpha virt. eigenvalues --    4.08792   4.09043   4.11861   4.15362   4.15594
 Alpha virt. eigenvalues --    4.21859   4.23485   4.28789   4.34366   4.83645
 Alpha virt. eigenvalues --    4.96500   4.99468   5.03556   5.10518   6.41101
 Alpha virt. eigenvalues --    6.45024   6.46727   6.50240   6.50447   6.56962
 Alpha virt. eigenvalues --    6.60158   6.66637   6.72408   6.91346   6.95565
 Alpha virt. eigenvalues --    7.03310  23.63211  24.04689  24.09694  24.23090
 Alpha virt. eigenvalues --   24.24946  24.38016  66.99725  67.03667  67.05327
 Alpha virt. eigenvalues --   67.09813
  Beta  occ. eigenvalues --  -24.71176 -24.71176 -24.69608 -24.69608 -10.23554
  Beta  occ. eigenvalues --  -10.23493 -10.22668 -10.22667 -10.14311 -10.14250
  Beta  occ. eigenvalues --   -1.20772  -1.19564  -1.18017  -1.17858  -0.81855
  Beta  occ. eigenvalues --   -0.70241  -0.69623  -0.58399  -0.57902  -0.51607
  Beta  occ. eigenvalues --   -0.49331  -0.49308  -0.46274  -0.44277  -0.42967
  Beta  occ. eigenvalues --   -0.41231  -0.39482  -0.38796  -0.37881  -0.37651
  Beta  occ. eigenvalues --   -0.35929  -0.32878  -0.30248  -0.29143  -0.27465
  Beta  occ. eigenvalues --   -0.17656  -0.16479
  Beta virt. eigenvalues --    0.08189   0.08846   0.09399   0.11014   0.11800
  Beta virt. eigenvalues --    0.14583   0.15052   0.15662   0.17973   0.18185
  Beta virt. eigenvalues --    0.18703   0.19005   0.19047   0.20905   0.22020
  Beta virt. eigenvalues --    0.22456   0.22799   0.23352   0.24356   0.24692
  Beta virt. eigenvalues --    0.24768   0.25311   0.25701   0.27419   0.28184
  Beta virt. eigenvalues --    0.29483   0.29517   0.29615   0.29966   0.33707
  Beta virt. eigenvalues --    0.33817   0.35274   0.36279   0.37598   0.38059
  Beta virt. eigenvalues --    0.40706   0.40953   0.42496   0.43136   0.44352
  Beta virt. eigenvalues --    0.44439   0.46368   0.46541   0.47160   0.47632
  Beta virt. eigenvalues --    0.49289   0.49610   0.51047   0.51549   0.51729
  Beta virt. eigenvalues --    0.54395   0.55397   0.60552   0.60840   0.61308
  Beta virt. eigenvalues --    0.63472   0.63754   0.67326   0.67672   0.67723
  Beta virt. eigenvalues --    0.67797   0.68995   0.72818   0.73302   0.73357
  Beta virt. eigenvalues --    0.80694   0.82520   0.83460   0.84989   0.88401
  Beta virt. eigenvalues --    0.89788   0.92329   0.96062   0.97142   0.97889
  Beta virt. eigenvalues --    1.00639   1.06263   1.06901   1.07447   1.07971
  Beta virt. eigenvalues --    1.11015   1.14931   1.15749   1.16856   1.21234
  Beta virt. eigenvalues --    1.25130   1.27107   1.29504   1.38654   1.41213
  Beta virt. eigenvalues --    1.48492   1.52517   1.52586   1.53010   1.53874
  Beta virt. eigenvalues --    1.54829   1.54930   1.56067   1.58001   1.61743
  Beta virt. eigenvalues --    1.64411   1.64914   1.64940   1.67707   1.68228
  Beta virt. eigenvalues --    1.71190   1.73327   1.76365   1.78223   1.85552
  Beta virt. eigenvalues --    1.90390   1.91692   1.94040   1.96497   1.98382
  Beta virt. eigenvalues --    1.98570   2.05749   2.06368   2.07805   2.10468
  Beta virt. eigenvalues --    2.16746   2.17181   2.22238   2.26509   2.28961
  Beta virt. eigenvalues --    2.31566   2.33226   2.39500   2.39724   2.52208
  Beta virt. eigenvalues --    2.53898   2.70493   2.74867   2.77321   2.82874
  Beta virt. eigenvalues --    2.83727   2.86275   2.87440   2.89367   2.96439
  Beta virt. eigenvalues --    2.98408   3.19124   3.22641   3.24126   3.26121
  Beta virt. eigenvalues --    3.31664   3.34307   3.48278   3.52147   3.68313
  Beta virt. eigenvalues --    3.79708   3.86732   3.86758   3.88105   3.88707
  Beta virt. eigenvalues --    3.89263   3.89952   3.94621   3.96196   4.03566
  Beta virt. eigenvalues --    4.05458   4.08801   4.09047   4.11863   4.15367
  Beta virt. eigenvalues --    4.15633   4.21878   4.23557   4.28797   4.34377
  Beta virt. eigenvalues --    4.83672   4.96523   4.99485   5.03580   5.10544
  Beta virt. eigenvalues --    6.41122   6.45046   6.46750   6.50266   6.50469
  Beta virt. eigenvalues --    6.56978   6.60170   6.66656   6.72428   6.91367
  Beta virt. eigenvalues --    6.95587   7.03334  23.63222  24.04692  24.09710
  Beta virt. eigenvalues --   24.23101  24.24961  24.38041  66.99732  67.03673
  Beta virt. eigenvalues --   67.05332  67.09819
          Condensed to atoms (all electrons):
               1          2          3          4          5          6
     1  C   24.578675  -0.047431   0.388274  -0.606987  -4.332345   1.325704
     2  C   -0.047431  24.578677   1.325706  -4.332346  -0.606988   0.388277
     3  C    0.388274   1.325706  33.856988 -14.761100 -13.732585  14.850838
     4  C   -0.606987  -4.332346 -14.761100  24.014869   6.427173 -13.732584
     5  C   -4.332345  -0.606988 -13.732585   6.427173  24.014872 -14.761104
     6  C    1.325704   0.388277  14.850838 -13.732584 -14.761104  33.856994
     7  H  -11.977478  -4.395218  -7.673384   3.940127   5.997548  -9.674620
     8  H   -4.395216 -11.977480  -9.674618   5.997546   3.940127  -7.673385
     9  F    0.128151  -0.509773   0.153757   0.010826   0.115303  -0.305757
    10  F   -0.122745  -0.127159   0.383337   0.077084  -0.470582   0.321506
    11  F   -0.127159  -0.122745   0.321506  -0.470582   0.077083   0.383337
    12  F   -0.509772   0.128151  -0.305757   0.115303   0.010826   0.153757
               7          8          9         10         11         12
     1  C  -11.977478  -4.395216   0.128151  -0.122745  -0.127159  -0.509772
     2  C   -4.395218 -11.977480  -0.509773  -0.127159  -0.122745   0.128151
     3  C   -7.673384  -9.674618   0.153757   0.383337   0.321506  -0.305757
     4  C    3.940127   5.997546   0.010826   0.077084  -0.470582   0.115303
     5  C    5.997548   3.940127   0.115303  -0.470582   0.077083   0.010826
     6  C   -9.674620  -7.673385  -0.305757   0.321506   0.383337   0.153757
     7  H   16.324184  10.223321   0.130361  -0.049207  -0.095717   0.274125
     8  H   10.223321  16.324184   0.274125  -0.095717  -0.049207   0.130361
     9  F    0.130361   0.274125   9.189538  -0.004942  -0.001322   0.001442
    10  F   -0.049207  -0.095717  -0.004942   9.253278   0.016751  -0.001322
    11  F   -0.095717  -0.049207  -0.001322   0.016751   9.253278  -0.004942
    12  F    0.274125   0.130361   0.001442  -0.001322  -0.004942   9.189538
          Atomic-Atomic Spin Densities.
               1          2          3          4          5          6
     1  C   13.569051   1.155211  -0.853370   1.508356  -2.002054   2.226967
     2  C    1.155211  13.569053   2.226969  -2.002055   1.508355  -0.853367
     3  C   -0.853370   2.226969  21.570473 -14.219913 -10.560968  17.660618
     4  C    1.508356  -2.002055 -14.219913  10.251228   6.229846 -10.560968
     5  C   -2.002054   1.508355 -10.560968   6.229846  10.251231 -14.219917
     6  C    2.226967  -0.853367  17.660618 -10.560968 -14.219917  21.570479
     7  H  -12.534084  -4.298900  -7.771724   3.942451   6.039351  -9.459531
     8  H   -4.298898 -12.534086  -9.459529   6.039350   3.942452  -7.771725
     9  F    0.103061  -0.211928  -0.493426   0.318235   0.134586  -0.285553
    10  F   -0.128453  -0.055623   0.648893  -0.536920  -0.248871   0.378363
    11  F   -0.055623  -0.128453   0.378363  -0.248871  -0.536920   0.648893
    12  F   -0.211928   0.103061  -0.285553   0.134586   0.318235  -0.493426
               7          8          9         10         11         12
     1  C  -12.534084  -4.298898   0.103061  -0.128453  -0.055623  -0.211928
     2  C   -4.298900 -12.534086  -0.211928  -0.055623  -0.128453   0.103061
     3  C   -7.771724  -9.459529  -0.493426   0.648893   0.378363  -0.285553
     4  C    3.942451   6.039350   0.318235  -0.536920  -0.248871   0.134586
     5  C    6.039351   3.942452   0.134586  -0.248871  -0.536920   0.318235
     6  C   -9.459531  -7.771725  -0.285553   0.378363   0.648893  -0.493426
     7  H   15.904314  10.230564   0.128488  -0.049286  -0.095757   0.301238
     8  H   10.230564  15.904314   0.301238  -0.095757  -0.049286   0.128488
     9  F    0.128488   0.301238   0.028849  -0.011725  -0.001466   0.001338
    10  F   -0.049286  -0.095757  -0.011725   0.064201   0.013430  -0.001466
    11  F   -0.095757  -0.049286  -0.001466   0.013430   0.064201  -0.011725
    12  F    0.301238   0.128488   0.001338  -0.001466  -0.011725   0.028849
 Mulliken charges and spin densities:
               1          2
     1  C    1.698328  -1.521763
     2  C    1.698328  -1.521763
     3  C    0.867036  -1.159167
     4  C   -0.679329   0.855326
     5  C   -0.679329   0.855326
     6  C    0.867036  -1.159167
     7  H   -2.024043   2.337124
     8  H   -2.024043   2.337124
     9  F   -0.181711   0.011696
    10  F   -0.180282  -0.023215
    11  F   -0.180282  -0.023215
    12  F   -0.181711   0.011696
 Sum of Mulliken charges =  -1.00000   1.00000
 Mulliken charges and spin densities with hydrogens summed into heavy atoms:
               1          2
     1  C   -0.325715   0.815361
     2  C   -0.325714   0.815361
     3  C    0.867036  -1.159167
     4  C   -0.679329   0.855326
     5  C   -0.679329   0.855326
     6  C    0.867036  -1.159167
     9  F   -0.181711   0.011696
    10  F   -0.180282  -0.023215
    11  F   -0.180282  -0.023215
    12  F   -0.181711   0.011696
 Electronic spatial extent (au):  <R**2>=           1447.5384
 Charge=             -1.0000 electrons
 Dipole moment (field-independent basis, Debye):
    X=             -9.8032    Y=             -0.0000    Z=             -0.0000  Tot=              9.8032
 Quadrupole moment (field-independent basis, Debye-Ang):
   XX=           -117.2548   YY=            -92.5766   ZZ=            -72.5958
   XY=             -0.0000   XZ=             -0.0000   YZ=              0.0000
 Traceless Quadrupole moment (field-independent basis, Debye-Ang):
   XX=            -23.1124   YY=              1.5658   ZZ=             21.5466
   XY=             -0.0000   XZ=             -0.0000   YZ=              0.0000
 Octapole moment (field-independent basis, Debye-Ang**2):
  XXX=           -181.5736  YYY=             -0.0000  ZZZ=             -0.0000  XYY=            -46.0009
  XXY=             -0.0000  XXZ=             -0.0000  XZZ=            -27.6384  YZZ=             -0.0000
  YYZ=              0.0000  XYZ=              0.0000
 Hexadecapole moment (field-independent basis, Debye-Ang**3):
 XXXX=          -2041.3574 YYYY=          -1353.6958 ZZZZ=           -236.2765 XXXY=             -0.0000
 XXXZ=             -0.0000 YYYX=             -0.0000 YYYZ=              0.0000 ZZZX=             -0.0000
 ZZZY=              0.0000 XXYY=           -564.4075 XXZZ=           -305.8156 YYZZ=           -234.7403
 XXYZ=              0.0000 YYXZ=             -0.0000 ZZXY=             -0.0000
 N-N= 5.260568167366D+02 E-N=-2.546535084760D+03  KE= 6.270958844140D+02
                          Isotropic Fermi Contact Couplings
        Atom                 a.u.       MegaHertz       Gauss      10(-4) cm-1
     1  C(13)              0.01455      16.35755       5.83678       5.45629
     2  C(13)              0.01455      16.35755       5.83678       5.45629
     3  C(13)             -0.00133      -1.49119      -0.53209      -0.49741
     4  C(13)              0.00023       0.26011       0.09281       0.08676
     5  C(13)              0.00023       0.26011       0.09281       0.08676
     6  C(13)             -0.00133      -1.49119      -0.53209      -0.49741
     7  H(1)              -0.00031      -1.40187      -0.50022      -0.46761
     8  H(1)              -0.00031      -1.40187      -0.50022      -0.46761
     9  F(19)              0.01824      76.76385      27.39125      25.60566
    10  F(19)              0.01885      79.30596      28.29834      26.45362
    11  F(19)              0.01885      79.30596      28.29834      26.45362
    12  F(19)              0.01824      76.76385      27.39125      25.60566
 --------------------------------------------------------
       Center         ----  Spin Dipole Couplings  ----
                      3XX-RR        3YY-RR        3ZZ-RR
 --------------------------------------------------------
     1   Atom        0.008288      0.001809     -0.010097
     2   Atom        0.008288      0.001809     -0.010097
     3   Atom        0.000739      0.001590     -0.002329
     4   Atom        0.007803     -0.003012     -0.004792
     5   Atom        0.007803     -0.003012     -0.004792
     6   Atom        0.000739      0.001590     -0.002329
     7   Atom        0.004883     -0.000934     -0.003948
     8   Atom        0.004883     -0.000934     -0.003948
     9   Atom        0.000585      0.001468     -0.002053
    10   Atom        0.001849      0.001372     -0.003221
    11   Atom        0.001849      0.001372     -0.003221
    12   Atom        0.000585      0.001468     -0.002053
 --------------------------------------------------------
                        XY            XZ            YZ
 --------------------------------------------------------
     1   Atom        0.011608      0.000000      0.000000
     2   Atom       -0.011608     -0.000000      0.000000
     3   Atom       -0.000272      0.000000      0.000000
     4   Atom        0.002330      0.000000      0.000000
     5   Atom       -0.002330     -0.000000      0.000000
     6   Atom        0.000272     -0.000000     -0.000000
     7   Atom        0.003756     -0.000000     -0.000000
     8   Atom       -0.003756      0.000000     -0.000000
     9   Atom        0.001620      0.000000      0.000000
    10   Atom        0.003431     -0.000000     -0.000000
    11   Atom       -0.003431      0.000000     -0.000000
    12   Atom       -0.001620     -0.000000     -0.000000
 --------------------------------------------------------


 ---------------------------------------------------------------------------------
              Anisotropic Spin Dipole Couplings in Principal Axis System
 ---------------------------------------------------------------------------------

       Atom             a.u.   MegaHertz   Gauss  10(-4) cm-1        Axes

              Baa    -0.0101    -1.355    -0.483    -0.452 -0.0000 -0.0000  1.0000
     1 C(13)  Bbb    -0.0070    -0.940    -0.335    -0.313 -0.6046  0.7965  0.0000
              Bcc     0.0171     2.295     0.819     0.765  0.7965  0.6046  0.0000
 
              Baa    -0.0101    -1.355    -0.483    -0.452  0.0000 -0.0000  1.0000
     2 C(13)  Bbb    -0.0070    -0.940    -0.335    -0.313  0.6046  0.7965  0.0000
              Bcc     0.0171     2.295     0.819     0.765  0.7965 -0.6046 -0.0000
 
              Baa    -0.0023    -0.313    -0.112    -0.104 -0.0000 -0.0000  1.0000
     3 C(13)  Bbb     0.0007     0.088     0.032     0.030  0.9598  0.2808  0.0000
              Bcc     0.0017     0.224     0.080     0.075 -0.2808  0.9598  0.0000
 
              Baa    -0.0048    -0.643    -0.229    -0.214 -0.0000  0.0000  1.0000
     4 C(13)  Bbb    -0.0035    -0.469    -0.167    -0.156 -0.2020  0.9794 -0.0000
              Bcc     0.0083     1.112     0.397     0.371  0.9794  0.2020  0.0000
 
              Baa    -0.0048    -0.643    -0.229    -0.214  0.0000 -0.0000  1.0000
     5 C(13)  Bbb    -0.0035    -0.469    -0.167    -0.156  0.2020  0.9794  0.0000
              Bcc     0.0083     1.112     0.397     0.371  0.9794 -0.2020 -0.0000
 
              Baa    -0.0023    -0.313    -0.112    -0.104 -0.0000  0.0000  1.0000
     6 C(13)  Bbb     0.0007     0.088     0.032     0.030  0.9598 -0.2808  0.0000
              Bcc     0.0017     0.224     0.080     0.075  0.2808  0.9598 -0.0000
 
              Baa    -0.0039    -2.107    -0.752    -0.703  0.0000  0.0000  1.0000
     7 H(1)   Bbb    -0.0028    -1.481    -0.529    -0.494 -0.4403  0.8978 -0.0000
              Bcc     0.0067     3.588     1.280     1.197  0.8978  0.4403 -0.0000
 
              Baa    -0.0039    -2.107    -0.752    -0.703 -0.0000  0.0000  1.0000
     8 H(1)   Bbb    -0.0028    -1.481    -0.529    -0.494  0.4403  0.8978 -0.0000
              Bcc     0.0067     3.588     1.280     1.197  0.8978 -0.4403  0.0000
 
              Baa    -0.0021    -1.031    -0.368    -0.344 -0.0000  0.0000  1.0000
     9 F(19)  Bbb    -0.0007    -0.328    -0.117    -0.109  0.7947 -0.6070  0.0000
              Bcc     0.0027     1.359     0.485     0.453  0.6070  0.7947  0.0000
 
              Baa    -0.0032    -1.617    -0.577    -0.540  0.0000  0.0000  1.0000
    10 F(19)  Bbb    -0.0018    -0.919    -0.328    -0.306 -0.6822  0.7312 -0.0000
              Bcc     0.0050     2.536     0.905     0.846  0.7312  0.6822 -0.0000
 
              Baa    -0.0032    -1.617    -0.577    -0.540 -0.0000  0.0000  1.0000
    11 F(19)  Bbb    -0.0018    -0.919    -0.328    -0.306  0.6822  0.7312 -0.0000
              Bcc     0.0050     2.536     0.905     0.846  0.7312 -0.6822  0.0000
 
              Baa    -0.0021    -1.031    -0.368    -0.344  0.0000  0.0000  1.0000
    12 F(19)  Bbb    -0.0007    -0.328    -0.117    -0.109  0.7947  0.6070 -0.0000
              Bcc     0.0027     1.359     0.485     0.453 -0.6070  0.7947 -0.0000
 

 ---------------------------------------------------------------------------------

 No NMR shielding tensors so no spin-rotation constants.
 Leave Link  601 at Wed Jan 29 14:43:34 2025, MaxMem=   104857600 cpu:               0.1 elap:               0.1
 (Enter /sw/cluster/pub/apps//g16/l701.exe)
 ... and contract with generalized density number  0.
 Compute integral first derivatives.
 Leave Link  701 at Wed Jan 29 14:43:35 2025, MaxMem=   104857600 cpu:               0.1 elap:               0.1
 (Enter /sw/cluster/pub/apps//g16/l702.exe)
 L702 exits ... SP integral derivatives will be done elsewhere.
 Leave Link  702 at Wed Jan 29 14:43:35 2025, MaxMem=   104857600 cpu:               0.0 elap:               0.0
 (Enter /sw/cluster/pub/apps//g16/l703.exe)
 Integral derivatives from FoFJK, PRISM(SPDF).
 Compute integral first derivatives, UseDBF=F ICtDFT=           0.
 Calling FoFJK, ICntrl=      2127 FMM=F ISym2X=0 I1Cent= 0 IOpClX= 1 NMat=1 NMatS=1 NMatT=0.
 FoFJK:  IHMeth= 1 ICntrl=    2127 DoSepK=F KAlg= 0 I1Cent=           0 FoldK=F
 IRaf=         0 NMat=       1 IRICut=       1 DoRegI=T DoRafI=F ISym2E= 0 IDoP0=0 IntGTp=1.
 FoFCou: FMM=F IPFlag=           0 FMFlag=      100000 FMFlg1=         800
         NFxFlg=           0 DoJE=F BraDBF=F KetDBF=F FulRan=T
         wScrn=  0.000000 ICntrl=      2127 IOpCl=  1 I1Cent=           0 NGrid=           0
         NMat0=    1 NMatS0=      1 NMatT0=    0 NMatD0=    1 NMtDS0=    0 NMtDT0=    0
 Symmetry not used in FoFCou.
 Leave Link  703 at Wed Jan 29 14:43:54 2025, MaxMem=   104857600 cpu:              19.5 elap:              19.5
 (Enter /sw/cluster/pub/apps//g16/l716.exe)
 Dipole        =-3.85687145D+00-1.07293028D-08-4.58063510D-09
 -------------------------------------------------------------------
 Center     Atomic                   Forces (Hartrees/Bohr)
 Number     Number              X              Y              Z
 -------------------------------------------------------------------
      1        6           0.000664742   -0.000612365   -0.000000000
      2        6           0.000664742    0.000612365    0.000000000
      3        6           0.000354422    0.005203441    0.000000001
      4        6           0.007498187    0.005110423   -0.000000001
      5        6           0.007498187   -0.005110423    0.000000001
      6        6           0.000354422   -0.005203441   -0.000000001
      7        1           0.000173430   -0.001079329    0.000000000
      8        1           0.000173430    0.001079329   -0.000000000
      9        9          -0.001069361   -0.003731795   -0.000000000
     10        9          -0.007621419   -0.004404667    0.000000000
     11        9          -0.007621419    0.004404667   -0.000000000
     12        9          -0.001069361    0.003731795    0.000000000
 -------------------------------------------------------------------
 Cartesian Forces:  Max     0.007621419 RMS     0.003367405
 Leave Link  716 at Wed Jan 29 14:43:54 2025, MaxMem=   104857600 cpu:               0.0 elap:               0.0
 (Enter /sw/cluster/pub/apps//g16/l103.exe)

 GradGradGradGradGradGradGradGradGradGradGradGradGradGradGradGradGradGrad
 Berny optimization.
 FormGI is forming the generalized inverse of G from B-inverse, IUseBI=4.
 Internal  Forces:  Max     0.008802558 RMS     0.001951733
 Search for a local minimum.
 Step number   1 out of a maximum of   64
 All quantities printed in internal units (Hartrees-Bohrs-Radians)
 RMS Force = .19517D-02 SwitMx=.10000D-02 MixMth= 1
 Mixed Optimization -- RFO/linear search
 Second derivative matrix not updated -- first step.
 ITU=  0
     Eigenvalues ---    0.02243   0.02247   0.02249   0.02265   0.02270
     Eigenvalues ---    0.02283   0.02293   0.02301   0.02312   0.16000
     Eigenvalues ---    0.16000   0.22495   0.24490   0.25000   0.25000
     Eigenvalues ---    0.25000   0.25000   0.25000   0.35625   0.35625
     Eigenvalues ---    0.43438   0.43886   0.47492   0.47671   0.48337
     Eigenvalues ---    0.48709   0.58816   0.58816   0.60595   0.60595
 RFO step:  Lambda=-3.86741485D-04 EMin= 2.24330949D-02
 Linear search not attempted -- first point.
 Iteration  1 RMS(Cart)=  0.00480536 RMS(Int)=  0.00000980
 Iteration  2 RMS(Cart)=  0.00001131 RMS(Int)=  0.00000029
 Iteration  3 RMS(Cart)=  0.00000000 RMS(Int)=  0.00000029
 ITry= 1 IFail=0 DXMaxC= 1.23D-02 DCOld= 1.00D+10 DXMaxT= 3.00D-01 DXLimC= 3.00D+00 Rises=F
 Variable       Old X    -DE/DX   Delta X   Delta X   Delta X     New X
                                 (Linear)    (Quad)   (Total)
    R1        2.62631  -0.00198   0.00000  -0.00408  -0.00408   2.62223
    R2        2.61006   0.00058   0.00000   0.00124   0.00124   2.61130
    R3        2.04673  -0.00041   0.00000  -0.00116  -0.00116   2.04557
    R4        2.61006   0.00058   0.00000   0.00124   0.00124   2.61130
    R5        2.04673  -0.00041   0.00000  -0.00116  -0.00116   2.04557
    R6        2.62324  -0.00047   0.00000  -0.00104  -0.00104   2.62219
    R7        2.51889   0.00375   0.00000   0.00637   0.00637   2.52527
    R8        2.62235  -0.00189   0.00000  -0.00405  -0.00405   2.61831
    R9        2.50472   0.00880   0.00000   0.01452   0.01452   2.51924
   R10        2.62324  -0.00047   0.00000  -0.00104  -0.00104   2.62219
   R11        2.50472   0.00880   0.00000   0.01452   0.01452   2.51924
   R12        2.51889   0.00375   0.00000   0.00637   0.00637   2.52527
    A1        2.08825  -0.00051   0.00000  -0.00189  -0.00189   2.08635
    A2        2.11676  -0.00078   0.00000  -0.00551  -0.00551   2.11124
    A3        2.07818   0.00129   0.00000   0.00741   0.00741   2.08559
    A4        2.08825  -0.00051   0.00000  -0.00189  -0.00189   2.08635
    A5        2.11676  -0.00078   0.00000  -0.00551  -0.00551   2.11124
    A6        2.07818   0.00129   0.00000   0.00741   0.00741   2.08559
    A7        2.10868   0.00080   0.00000   0.00329   0.00329   2.11197
    A8        2.10675   0.00086   0.00000   0.00339   0.00339   2.11014
    A9        2.06775  -0.00166   0.00000  -0.00667  -0.00667   2.06108
   A10        2.08626  -0.00030   0.00000  -0.00139  -0.00140   2.08486
   A11        2.10729   0.00009   0.00000   0.00047   0.00047   2.10776
   A12        2.08964   0.00021   0.00000   0.00093   0.00093   2.09057
   A13        2.08626  -0.00030   0.00000  -0.00139  -0.00140   2.08486
   A14        2.08964   0.00021   0.00000   0.00093   0.00093   2.09057
   A15        2.10729   0.00009   0.00000   0.00047   0.00047   2.10776
   A16        2.10868   0.00080   0.00000   0.00329   0.00329   2.11197
   A17        2.10675   0.00086   0.00000   0.00339   0.00339   2.11014
   A18        2.06775  -0.00166   0.00000  -0.00667  -0.00667   2.06108
    D1        0.00000  -0.00000   0.00000  -0.00000  -0.00000   0.00000
    D2        3.14159  -0.00000   0.00000  -0.00000   0.00000   3.14159
    D3        3.14159  -0.00000   0.00000  -0.00000  -0.00000   3.14159
    D4        0.00000  -0.00000   0.00000  -0.00000  -0.00000  -0.00000
    D5       -0.00000   0.00000   0.00000   0.00000   0.00000   0.00000
    D6        3.14159  -0.00000   0.00000  -0.00000   0.00000   3.14159
    D7        3.14159   0.00000   0.00000   0.00000   0.00000  -3.14159
    D8        0.00000  -0.00000   0.00000  -0.00000  -0.00000   0.00000
    D9       -0.00000   0.00000   0.00000   0.00000   0.00000   0.00000
   D10        3.14159  -0.00000   0.00000  -0.00000   0.00000   3.14159
   D11        3.14159   0.00000   0.00000   0.00000   0.00000   3.14159
   D12        0.00000  -0.00000   0.00000  -0.00000   0.00000   0.00000
   D13        0.00000  -0.00000   0.00000  -0.00000  -0.00000   0.00000
   D14        3.14159   0.00000   0.00000   0.00000   0.00000   3.14159
   D15        3.14159   0.00000   0.00000   0.00000   0.00000   3.14159
   D16       -0.00000   0.00000   0.00000   0.00000   0.00000   0.00000
   D17       -0.00000   0.00000   0.00000   0.00000   0.00000   0.00000
   D18        3.14159   0.00000   0.00000   0.00000   0.00000   3.14159
   D19        3.14159  -0.00000   0.00000  -0.00000   0.00000   3.14159
   D20        0.00000  -0.00000   0.00000  -0.00000  -0.00000  -0.00000
   D21        0.00000  -0.00000   0.00000  -0.00000  -0.00000   0.00000
   D22        3.14159   0.00000   0.00000   0.00000   0.00000   3.14159
   D23        3.14159   0.00000   0.00000   0.00000   0.00000   3.14159
   D24       -0.00000   0.00000   0.00000   0.00000   0.00000   0.00000
         Item               Value     Threshold  Converged?
 Maximum Force            0.008803     0.000450     NO 
 RMS     Force            0.001952     0.000300     NO 
 Maximum Displacement     0.012299     0.001800     NO 
 RMS     Displacement     0.004807     0.001200     NO 
 Predicted change in Energy=-1.935370D-04
 Lowest energy point so far.  Saving SCF results.
 GradGradGradGradGradGradGradGradGradGradGradGradGradGradGradGradGradGrad

 Leave Link  103 at Wed Jan 29 14:43:54 2025, MaxMem=   104857600 cpu:               0.0 elap:               0.0
 (Enter /sw/cluster/pub/apps//g16/l202.exe)
                          Input orientation:                          
 ---------------------------------------------------------------------
 Center     Atomic      Atomic             Coordinates (Angstroms)
 Number     Number       Type             X           Y           Z
 ---------------------------------------------------------------------
      1          6           0        1.204834    0.693811   -0.000000
      2          6           0        1.204834   -0.693811   -0.000000
      3          6           0        0.002608   -1.375088    0.000000
      4          6           0       -1.205652   -0.692774   -0.000000
      5          6           0       -1.205652    0.692774    0.000000
      6          6           0        0.002608    1.375088   -0.000000
      7          1           0        2.133030    1.250760    0.000000
      8          1           0        2.133030   -1.250760   -0.000000
      9          9           0       -0.029172   -2.711024    0.000000
     10          9           0       -2.362714   -1.354912    0.000000
     11          9           0       -2.362714    1.354912   -0.000000
     12          9           0       -0.029172    2.711024    0.000000
 ---------------------------------------------------------------------
                    Distance matrix (angstroms):
                    1          2          3          4          5
     1  C    0.000000
     2  C    1.387622   0.000000
     3  C    2.392842   1.381842   0.000000
     4  C    2.780839   2.410487   1.387604   0.000000
     5  C    2.410487   2.780839   2.394983   1.385548   0.000000
     6  C    1.381842   2.392842   2.750176   2.394983   1.387604
     7  H    1.082469   2.154740   3.381387   3.863175   3.384988
     8  H    2.154740   1.082469   2.134047   3.384988   3.863175
     9  F    3.621557   2.364724   1.336314   2.336117   3.601382
    10  F    4.113960   3.628285   2.365408   1.333124   2.351980
    11  F    3.628285   4.113960   3.612153   2.351980   1.333124
    12  F    2.364724   3.621557   4.086236   3.601382   2.336117
                    6          7          8          9         10
     6  C    0.000000
     7  H    2.134047   0.000000
     8  H    3.381387   2.501521   0.000000
     9  F    4.086236   4.513408   2.609116   0.000000
    10  F    3.612153   5.196272   4.496950   2.698974   0.000000
    11  F    2.365408   4.496950   5.196272   4.687991   2.709824
    12  F    1.336314   2.609116   4.513408   5.422049   4.687991
                   11         12
    11  F    0.000000
    12  F    2.698974   0.000000
 Symmetry turned off by external request.
 Stoichiometry    C6H2F4(1-,2)
 Framework group  C2[X(C6H2F4)]
 Deg. of freedom    16
 Full point group                 C2      NOp   2
 Rotational constants (GHZ):           2.0959985           1.2015014           0.7637135
 Leave Link  202 at Wed Jan 29 14:43:55 2025, MaxMem=   104857600 cpu:               0.0 elap:               0.0
 (Enter /sw/cluster/pub/apps//g16/l301.exe)
 Standard basis: 6-311++G(d,p) (5D, 7F)
 Ernie: Thresh=  0.10000D-02 Tol=  0.10000D-05 Strict=F.
   234 basis functions,   378 primitive gaussians,   244 cartesian basis functions
    38 alpha electrons       37 beta electrons
       nuclear repulsion energy       525.4895809734 Hartrees.
 IExCor= 1009 DFT=T Ex+Corr=PBE1PBE ExCW=0 ScaHFX=  0.250000
 ScaDFX=  0.750000  0.750000  1.000000  1.000000 ScalE2=  1.000000  1.000000
 IRadAn=      5 IRanWt=     -1 IRanGd=            0 ICorTp=0 IEmpDi=  4
 NAtoms=   12 NActive=   12 NUniq=   12 SFac= 1.00D+00 NAtFMM=   60 NAOKFM=F Big=F
 Integral buffers will be    131072 words long.
 Raffenetti 2 integral format.
 Two-electron integral symmetry is turned off.
 Leave Link  301 at Wed Jan 29 14:43:55 2025, MaxMem=   104857600 cpu:               0.0 elap:               0.0
 (Enter /sw/cluster/pub/apps//g16/l302.exe)
 NPDir=0 NMtPBC=     1 NCelOv=     1 NCel=       1 NClECP=     1 NCelD=      1
         NCelK=      1 NCelE2=     1 NClLst=     1 CellRange=     0.0.
 One-electron integrals computed using PRISM.
 NBasis=   234 RedAO= T EigKep=  1.85D-06  NBF=   234
 NBsUse=   234 1.00D-06 EigRej= -1.00D+00 NBFU=   234
 Precomputing XC quadrature grid using
 IXCGrd= 4 IRadAn=           5 IRanWt=          -1 IRanGd=           0 AccXCQ= 0.00D+00.
 Generated NRdTot=       0 NPtTot=           0 NUsed=           0 NTot=          32
 NSgBfM=   244   244   244   244   244 MxSgAt=    12 MxSgA2=    12.
 Leave Link  302 at Wed Jan 29 14:43:55 2025, MaxMem=   104857600 cpu:               0.2 elap:               0.2
 (Enter /sw/cluster/pub/apps//g16/l303.exe)
 DipDrv:  MaxL=1.
 Leave Link  303 at Wed Jan 29 14:43:55 2025, MaxMem=   104857600 cpu:               0.0 elap:               0.0
 (Enter /sw/cluster/pub/apps//g16/l401.exe)
 Initial guess from the checkpoint file:  "1-2-3-4-TtFB-ANI.chk"
 B after Tr=    -0.003154   -0.000000    0.000000
         Rot=    1.000000    0.000000   -0.000000    0.000000 Ang=   0.00 deg.
 Guess basis will be translated and rotated to current coordinates.
 JPrj=2 DoOrth=T DoCkMO=T.
 Initial guess <Sx>= 0.0000 <Sy>= 0.0000 <Sz>= 0.5000 <S**2>= 0.7500 S= 0.5000
 Leave Link  401 at Wed Jan 29 14:43:55 2025, MaxMem=   104857600 cpu:               0.1 elap:               0.1
 (Enter /sw/cluster/pub/apps//g16/l502.exe)
 Two-electron integral symmetry not used.
 UHF open shell SCF:
 Using DIIS extrapolation, IDIIS=  1040.
 NGot=   104857600 LenX=   104735324 LenY=   104675347
 Requested convergence on RMS density matrix=1.00D-08 within 128 cycles.
 Requested convergence on MAX density matrix=1.00D-06.
 Requested convergence on             energy=1.00D-06.
 No special actions if energy rises.
 Fock matrices will be formed incrementally for  20 cycles.

 Cycle   1  Pass 1  IDiag  1:
 FoFJK:  IHMeth= 1 ICntrl=       0 DoSepK=F KAlg= 0 I1Cent=           0 FoldK=F
 IRaf= 930000000 NMat=       1 IRICut=       1 DoRegI=T DoRafI=F ISym2E= 0 IDoP0=0 IntGTp=1.
 FoFCou: FMM=F IPFlag=           0 FMFlag=      100000 FMFlg1=           0
         NFxFlg=           0 DoJE=F BraDBF=F KetDBF=F FulRan=T
         wScrn=  0.000000 ICntrl=         0 IOpCl=  1 I1Cent=           0 NGrid=           0
         NMat0=    1 NMatS0=      1 NMatT0=    0 NMatD0=    1 NMtDS0=    0 NMtDT0=    0
 Symmetry not used in FoFCou.
 E= -628.693787228102    
 DIIS: error= 5.70D-04 at cycle   1 NSaved=   1.
[...]
    A7        2.11173   0.00003   0.00000   0.00014   0.00014   2.11187
    A8        2.11097  -0.00008   0.00000  -0.00023  -0.00023   2.11074
    A9        2.06049   0.00005   0.00000   0.00009   0.00009   2.06057
   A10        2.08537   0.00000   0.00000  -0.00002  -0.00002   2.08534
   A11        2.10585  -0.00004   0.00000  -0.00037  -0.00037   2.10548
   A12        2.09197   0.00004   0.00000   0.00040   0.00040   2.09237
   A13        2.08537   0.00000   0.00000  -0.00002  -0.00002   2.08534
   A14        2.09197   0.00004   0.00000   0.00040   0.00040   2.09237
   A15        2.10585  -0.00004   0.00000  -0.00037  -0.00037   2.10548
   A16        2.11173   0.00003   0.00000   0.00014   0.00014   2.11187
   A17        2.11097  -0.00008   0.00000  -0.00023  -0.00023   2.11074
   A18        2.06049   0.00005   0.00000   0.00009   0.00009   2.06057
    D1       -0.00000   0.00000   0.00000   0.00000   0.00000   0.00000
    D2        3.14159   0.00000   0.00000  -0.00000   0.00000   3.14159
    D3        3.14159   0.00000   0.00000   0.00000   0.00000   3.14159
    D4        0.00000  -0.00000   0.00000  -0.00000  -0.00000  -0.00000
    D5        0.00000  -0.00000   0.00000   0.00000   0.00000   0.00000
    D6       -3.14159  -0.00000   0.00000  -0.00000  -0.00000   3.14159
    D7        3.14159   0.00000   0.00000   0.00000   0.00000  -3.14159
    D8        0.00000  -0.00000   0.00000  -0.00000  -0.00000   0.00000
    D9       -0.00000  -0.00000   0.00000  -0.00000  -0.00000  -0.00000
   D10        3.14159  -0.00000   0.00000  -0.00000   0.00000   3.14159
   D11        3.14159   0.00000   0.00000   0.00000   0.00000   3.14159
   D12       -0.00000   0.00000   0.00000   0.00000   0.00000   0.00000
   D13        0.00000  -0.00000   0.00000  -0.00000  -0.00000   0.00000
   D14        3.14159   0.00000   0.00000   0.00000   0.00000   3.14159
   D15       -3.14159  -0.00000   0.00000  -0.00000  -0.00000   3.14159
   D16       -0.00000   0.00000   0.00000   0.00000   0.00000  -0.00000
   D17       -0.00000   0.00000   0.00000   0.00000   0.00000   0.00000
   D18        3.14159   0.00000   0.00000   0.00000   0.00000   3.14159
   D19        3.14159  -0.00000   0.00000  -0.00000   0.00000  -3.14159
   D20        0.00000  -0.00000   0.00000  -0.00000  -0.00000   0.00000
   D21        0.00000  -0.00000   0.00000  -0.00000  -0.00000  -0.00000
   D22        3.14159  -0.00000   0.00000  -0.00000   0.00000  -3.14159
   D23        3.14159   0.00000   0.00000   0.00000   0.00000   3.14159
   D24       -0.00000   0.00000   0.00000   0.00000   0.00000   0.00000
         Item               Value     Threshold  Converged?
 Maximum Force            0.000240     0.000450     YES
 RMS     Force            0.000058     0.000300     YES
 Maximum Displacement     0.000550     0.001800     YES
 RMS     Displacement     0.000199     0.001200     YES
 Predicted change in Energy=-3.468239D-07
 Optimization completed.
    -- Stationary point found.
                           ----------------------------
                           !   Optimized Parameters   !
                           ! (Angstroms and Degrees)  !
 --------------------------                            --------------------------
 ! Name  Definition              Value          Derivative Info.                !
 --------------------------------------------------------------------------------
 ! R1    R(1,2)                  1.3884         -DE/DX =    0.0001              !
 ! R2    R(1,6)                  1.3814         -DE/DX =   -0.0001              !
 ! R3    R(1,7)                  1.0823         -DE/DX =    0.0                 !
 ! R4    R(2,3)                  1.3814         -DE/DX =   -0.0001              !
 ! R5    R(2,8)                  1.0823         -DE/DX =    0.0                 !
 ! R6    R(3,4)                  1.387          -DE/DX =    0.0001              !
 ! R7    R(3,9)                  1.3378         -DE/DX =    0.0                 !
 ! R8    R(4,5)                  1.3847         -DE/DX =   -0.0002              !
 ! R9    R(4,10)                 1.3357         -DE/DX =    0.0                 !
 ! R10   R(5,6)                  1.387          -DE/DX =    0.0001              !
 ! R11   R(5,11)                 1.3357         -DE/DX =    0.0                 !
 ! R12   R(6,12)                 1.3378         -DE/DX =    0.0                 !
 ! A1    A(2,1,6)              119.524          -DE/DX =    0.0                 !
 ! A2    A(2,1,7)              120.8506         -DE/DX =    0.0                 !
 ! A3    A(6,1,7)              119.6254         -DE/DX =    0.0001              !
 ! A4    A(1,2,3)              119.524          -DE/DX =    0.0                 !
 ! A5    A(1,2,8)              120.8506         -DE/DX =    0.0                 !
 ! A6    A(3,2,8)              119.6254         -DE/DX =    0.0001              !
 ! A7    A(2,3,4)              120.9933         -DE/DX =    0.0                 !
 ! A8    A(2,3,9)              120.9495         -DE/DX =   -0.0001              !
 ! A9    A(4,3,9)              118.0572         -DE/DX =    0.0001              !
 ! A10   A(3,4,5)              119.4826         -DE/DX =    0.0                 !
 ! A11   A(3,4,10)             120.6562         -DE/DX =    0.0                 !
 ! A12   A(5,4,10)             119.8611         -DE/DX =    0.0                 !
 ! A13   A(4,5,6)              119.4826         -DE/DX =    0.0                 !
 ! A14   A(4,5,11)             119.8611         -DE/DX =    0.0                 !
 ! A15   A(6,5,11)             120.6562         -DE/DX =    0.0                 !
 ! A16   A(1,6,5)              120.9933         -DE/DX =    0.0                 !
 ! A17   A(1,6,12)             120.9495         -DE/DX =   -0.0001              !
 ! A18   A(5,6,12)             118.0572         -DE/DX =    0.0001              !
 ! D1    D(6,1,2,3)              0.0            -DE/DX =    0.0                 !
 ! D2    D(6,1,2,8)            180.0            -DE/DX =    0.0                 !
 ! D3    D(7,1,2,3)            180.0            -DE/DX =    0.0                 !
 ! D4    D(7,1,2,8)              0.0            -DE/DX =    0.0                 !
 ! D5    D(2,1,6,5)              0.0            -DE/DX =    0.0                 !
 ! D6    D(2,1,6,12)           180.0            -DE/DX =    0.0                 !
 ! D7    D(7,1,6,5)           -180.0            -DE/DX =    0.0                 !
 ! D8    D(7,1,6,12)             0.0            -DE/DX =    0.0                 !
 ! D9    D(1,2,3,4)              0.0            -DE/DX =    0.0                 !
 ! D10   D(1,2,3,9)            180.0            -DE/DX =    0.0                 !
 ! D11   D(8,2,3,4)            180.0            -DE/DX =    0.0                 !
 ! D12   D(8,2,3,9)              0.0            -DE/DX =    0.0                 !
 ! D13   D(2,3,4,5)              0.0            -DE/DX =    0.0                 !
 ! D14   D(2,3,4,10)           180.0            -DE/DX =    0.0                 !
 ! D15   D(9,3,4,5)            180.0            -DE/DX =    0.0                 !
 ! D16   D(9,3,4,10)             0.0            -DE/DX =    0.0                 !
 ! D17   D(3,4,5,6)              0.0            -DE/DX =    0.0                 !
 ! D18   D(3,4,5,11)           180.0            -DE/DX =    0.0                 !
 ! D19   D(10,4,5,6)          -180.0            -DE/DX =    0.0                 !
 ! D20   D(10,4,5,11)            0.0            -DE/DX =    0.0                 !
 ! D21   D(4,5,6,1)              0.0            -DE/DX =    0.0                 !
 ! D22   D(4,5,6,12)          -180.0            -DE/DX =    0.0                 !
 ! D23   D(11,5,6,1)           180.0            -DE/DX =    0.0                 !
 ! D24   D(11,5,6,12)            0.0            -DE/DX =    0.0                 !
 --------------------------------------------------------------------------------
 GradGradGradGradGradGradGradGradGradGradGradGradGradGradGradGradGradGrad

 Leave Link  103 at Wed Jan 29 14:59:43 2025, MaxMem=   104857600 cpu:               0.0 elap:               0.0
 (Enter /sw/cluster/pub/apps//g16/l9999.exe)

 ----------------------------------------------------------------------

 Electric dipole moment (input orientation):
 (Debye = 10**-18 statcoulomb cm , SI units = C m)
                  (au)            (Debye)         (10**-30 SI)
   Tot        0.377298D+01      0.958995D+01      0.319886D+02
   x         -0.377298D+01     -0.958995D+01     -0.319886D+02
   y          0.000000D+00      0.000000D+00      0.000000D+00
   z          0.000000D+00      0.000000D+00      0.000000D+00

 Dipole polarizability, Alpha (input orientation).
 (esu units = cm**3 , SI units = C**2 m**2 J**-1)
 Alpha(0;0):
               (au)            (10**-24 esu)      (10**-40 SI)
   iso        0.111432D+04      0.165125D+03      0.183727D+03
   aniso      0.131037D+04      0.194177D+03      0.216051D+03
   xx         0.135310D+04      0.200508D+03      0.223096D+03
   yx         0.839951D-04      0.124468D-04      0.138489D-04
   yy         0.172267D+04      0.255273D+03      0.284030D+03
   zx         0.000000D+00      0.000000D+00      0.000000D+00
   zy        -0.137034D-03     -0.203063D-04     -0.225938D-04
   zz         0.267197D+03      0.395946D+02      0.440549D+02

 ----------------------------------------------------------------------

 Dipole orientation:
     6         -0.00000000          1.31185444         -2.27659234
     6         -0.00000003         -1.31185442         -2.27659235
     6         -0.00000001         -2.59828286         -0.00505947
     6          0.00000004         -1.30833756          2.27652319
     6          0.00000001          1.30833755          2.27652320
     6          0.00000001          2.59828286         -0.00505945
     1         -0.00000001          2.36066226         -4.03245475
     1         -0.00000004         -2.36066223         -4.03245477
     9         -0.00000003         -5.12557542          0.05783124
     9          0.00000002         -2.56509926          4.46553549
     9          0.00000004          2.56509923          4.46553551
     9          0.00000000          5.12557542          0.05783127

 Electric dipole moment (dipole orientation):
 (Debye = 10**-18 statcoulomb cm , SI units = C m)
                  (au)            (Debye)         (10**-30 SI)
   Tot        0.377298D+01      0.958995D+01      0.319886D+02
   x          0.000000D+00      0.000000D+00      0.000000D+00
   y          0.000000D+00      0.000000D+00      0.000000D+00
   z          0.377298D+01      0.958995D+01      0.319886D+02

 Dipole polarizability, Alpha (dipole orientation).
 (esu units = cm**3 , SI units = C**2 m**2 J**-1)
 Alpha(0;0):
               (au)            (10**-24 esu)      (10**-40 SI)
   iso        0.111432D+04      0.165125D+03      0.183727D+03
   aniso      0.131037D+04      0.194177D+03      0.216051D+03
   xx         0.267197D+03      0.395946D+02      0.440549D+02
   yx        -0.131705D-03     -0.195167D-04     -0.217152D-04
   yy         0.172267D+04      0.255273D+03      0.284030D+03
   zx         0.132063D-04      0.195697D-05      0.217743D-05
   zy        -0.826420D-04     -0.122463D-04     -0.136258D-04
   zz         0.135310D+04      0.200508D+03      0.223096D+03

 ----------------------------------------------------------------------
 1\1\GINC-N03\Freq\UPBE1PBE\6-311++G(d,p)\C6H2F4(1-,2)\UNKNOWN\29-Jan-2
 025\0\\#P Geom=AllCheck Guess=TCheck SCRF=Check GenChk UPBE1PBE/6-311+
 +G(d,p) Freq\\1 2 3 4 TtFB SP\\-1,2\C,1.2047207898,0.6942034682,0.0000
 000052\C,1.20472079,-0.6942034683,-0.0000000063\C,0.0026773532,-1.3749
 52079,-0.0000000016\C,-1.2046841946,-0.6923424175,0.0000000175\C,-1.20
 46841946,0.6923424176,-0.0000000037\C,0.0026773532,1.3749520789,0.0000
 000027\H,2.1338831644,1.2492086618,0.0000000048\H,2.1338831647,-1.2492
 086616,-0.0000000021\F,-0.030602982,-2.712337707,-0.0000000051\F,-2.36
 30596192,-1.3573920643,-0.0000000034\F,-2.3630596191,1.3573920644,-0.0
 000000016\F,-0.0306029819,2.7123377068,-0.0000000085\\Version=ES64L-G1
 6RevA.03\HF=-628.6939437\S2=0.750033\S2-1=0.\S2A=0.75\RMSD=2.573e-09\R
 MSF=1.214e-04\ZeroPoint=0.0672911\Thermal=0.0747353\Dipole=-4.7634384,
 0.,0.\DipoleDeriv=2.1571891,-2.3262913,0.0000007,0.5610076,-0.7216883,
 0.0000002,-0.0000007,-0.0000022,1.0493195,2.1571896,2.3262938,-0.00000
 1,-0.5610077,-0.7216892,0.,0.0000009,0.0000055,1.0493194,-1.76475,-0.0
 544061,0.0000006,0.8465045,-0.4480159,0.,-0.0000007,-0.0000028,1.09439
 26,2.6253956,0.1326458,0.,3.2783083,-0.130333,0.0000001,-0.0000021,-0.
 0000089,-1.054987,2.6253955,-0.1326468,0.0000001,-3.2783083,-0.1303334
 ,0.0000003,0.0000029,0.0000116,-1.0549868,-1.7647497,0.0544071,-0.0000
 007,-0.8465046,-0.4480168,0.,-0.0000003,-0.0000017,1.0943925,-2.149629
 5,0.4062311,0.0000002,-0.452892,-0.2348522,0.,0.0000003,-0.0000005,-1.
 4053417,-2.1496294,-0.4062337,0.,0.452892,-0.2348515,0.,-0.0000003,-0.
 0000012,-1.4053418,0.6352663,-0.2276931,0.,-1.3034983,0.9521699,0.,0.0
 000003,0.0000012,-0.4275379,-2.0034719,-0.101513,0.,-1.8032997,0.08271
 99,0.,0.000001,0.0000033,0.2441546,-2.0034721,0.1015124,0.0000001,1.80
 32997,0.0827204,0.,-0.0000013,-0.000005,0.2441546,0.6352664,0.2276936,
 0.,1.3034985,0.9521701,-0.0000003,0.,0.0000007,-0.4275379\Polar=1353.0
 979147,0.000084,1722.6679709,-0.0000057,-0.000137,267.1972985\Quadrupo
 le=-17.2203896,1.206273,16.0141166,0.,-0.0000002,0.0000003\PG=C01 [X(C
 6H2F4)]\NImag=1\\0.73219091,0.02713308,0.71796096,0.,0.,0.13411744,-0.
 12695815,0.02959013,0.,0.73219090,-0.02959013,-0.35820344,0.,-0.027133
 07,0.71796096,0.00000002,0.00000002,-0.05488940,-0.00000003,0.,0.13411
 744,0.04514394,-0.07830250,0.,-0.30829080,-0.04787736,0.,0.72409829,-0
 .03144792,-0.02663327,0.,-0.12724033,-0.16368851,0.,0.00865359,0.69987
 709,-0.00000002,0.,0.00526044,0.00000003,0.,-0.05008098,-0.00000003,0.
 ,0.07705737,-0.02625894,0.03169773,0.,-0.05577520,-0.03134626,0.000000
 01,-0.27762264,0.15055480,0.,0.72071153,0.02659150,-0.05594821,0.,0.02
 013041,0.07046927,0.,0.05455392,-0.16414447,0.,-0.01099920,0.72835175,
 -0.00000001,-0.00000003,0.02158137,0.00000003,0.,-0.02820012,0.0000000
 1,0.00000001,-0.01658777,-0.00000003,0.00000001,0.13850760,-0.05577521
 ,0.03134626,0.,-0.02625894,-0.03169773,-0.00000001,0.05019015,0.023456
 66,0.,-0.11056010,0.04655271,0.00000003,0.72071154,-0.02013041,0.07046
 927,-0.00000001,-0.02659150,-0.05594821,0.00000002,0.08453591,-0.01904
 889,-0.00000001,-0.04655271,-0.34145548,-0.00000003,0.01099920,0.72835
 175,0.00000004,0.00000004,-0.02820012,-0.00000007,0.,0.02158138,0.0000
 0002,-0.00000001,0.03382592,0.00000002,0.,-0.12589189,-0.00000002,0.00
 000004,0.13850763,-0.30829079,0.04787735,0.,0.04514393,0.07830250,0.,-
 0.08739057,0.00317702,0.00000002,0.05019015,-0.08453591,-0.00000002,-0
 .27762265,-0.05455392,-0.00000001,0.72409829,0.12724032,-0.16368851,0.
 ,0.03144792,-0.02663328,0.,-0.00317703,-0.00604850,0.,-0.02345666,-0.0
 1904889,0.00000001,-0.15055480,-0.16414447,-0.00000002,-0.00865359,0.6
 9987709,-0.00000001,0.,-0.05008099,0.00000003,0.,0.00526045,-0.0000000
 2,0.,-0.05141384,0.,0.,0.03382593,0.,0.,-0.01658778,0.00000002,0.,0.07
 705739,-0.27084567,-0.12517262,0.,0.01155557,-0.00137056,0.,-0.0019293
 8,0.00362039,0.,0.00299666,0.00626589,-0.00000002,0.00253196,-0.001821
 84,0.00000002,-0.02209296,-0.01620865,0.,0.28107552,-0.12696727,-0.130
 49622,0.,-0.02437100,-0.01233231,0.,0.00058591,-0.00276876,0.,0.001589
 88,0.00065376,0.,0.00358494,-0.00340407,0.,0.01439734,0.00985848,0.,0.
 13520245,0.13507305,0.,0.,-0.03967633,0.,0.,-0.00071007,0.,0.,0.011784
 97,0.,0.,-0.00925884,0.,0.,0.00728891,0.,0.,0.00926281,0.,0.,0.0267678
 2,0.01155557,0.00137056,0.,-0.27084566,0.12517262,0.,-0.02209296,0.016
 20865,0.,0.00253196,0.00182184,0.,0.00299667,-0.00626589,0.00000001,-0
 .00192938,-0.00362039,0.,-0.00409251,-0.00166150,0.,0.28107551,0.02437
 101,-0.01233231,0.,0.12696727,-0.13049622,0.,-0.01439734,0.00985848,0.
 ,-0.00358494,-0.00340406,0.,-0.00158988,0.00065376,0.,-0.00058591,-0.0
 0276876,0.,0.00166149,0.00181316,0.,-0.13520245,0.13507305,0.,0.,-0.00
 071007,0.,0.,-0.03967633,0.,0.,0.00926281,0.,0.,0.00728891,0.,0.,-0.00
 925884,0.,0.,0.01178497,0.,0.,-0.00243637,0.,0.,0.02676782,-0.00967892
 ,0.00172452,0.,0.00602151,-0.04363926,0.,-0.07107404,-0.00564598,0.,-0
 .00106503,0.03734507,0.,-0.00915615,-0.00255365,0.,0.00473091,0.000848
 87,0.,0.00179546,-0.00107104,0.,0.00412933,0.00121040,0.,0.06570203,0.
 00304080,0.00357826,0.,-0.00344043,-0.04131370,0.,-0.00548139,-0.33341
 859,0.,-0.00222323,-0.04992510,0.00000001,0.00156008,-0.00074023,-0.00
 000001,-0.00251271,0.00443024,0.,-0.00250353,-0.00230286,0.,-0.0009476
 6,0.00311616,0.,0.00817858,0.41912209,0.,0.,0.00347476,-0.00000001,0.,
 0.00173785,0.,0.,-0.02138884,0.,0.,-0.00451853,0.,0.,-0.00533197,0.,0.
 ,0.01482958,0.,0.,-0.00029016,0.,0.,-0.00501056,0.,0.,0.01833186,0.001
 72846,-0.00278628,0.,0.00116729,0.00811749,0.,-0.05280345,-0.03750320,
 0.,-0.27431353,-0.11341321,0.,-0.02167871,-0.01313331,0.,-0.00295944,0
 .00298483,0.,-0.00152947,-0.00058296,0.,-0.00359451,-0.00050364,0.,0.0
 0791683,0.00192623,0.,0.33466938,0.00105282,0.00135854,0.,0.00473421,-
 0.00475136,0.,0.00368060,0.00522816,0.,-0.11584270,-0.13532681,0.,-0.0
 5172338,-0.02948152,0.,0.00528702,-0.00364299,0.,-0.00249712,-0.000536
 26,0.,-0.00187644,0.00132586,0.,0.00347082,0.00746492,0.,0.15557158,0.
 15243798,0.,0.00000001,-0.00826889,-0.00000001,0.,0.01565393,0.,0.,-0.
 00710898,0.,0.,-0.04323864,-0.00000001,0.00000001,0.03182394,0.,0.,-0.
 00544070,0.,0.,0.00284545,0.,0.,-0.00056764,0.,0.,-0.00078309,0.,0.,0.
 02552088,0.00116729,-0.00811749,0.,0.00172847,0.00278628,0.,-0.0029594
 4,-0.00298483,0.,-0.02167871,0.01313332,0.,-0.27431353,0.11341320,0.,-
 0.05280346,0.03750320,0.,-0.00359451,0.00050364,0.,-0.00152948,0.00058
 296,0.,0.00093935,0.00127085,0.,0.01045782,-0.00059331,0.,0.33466938,-
 0.00473422,-0.00475136,0.,-0.00105282,0.00135853,0.,-0.00528702,-0.003
 64299,0.,0.05172338,-0.02948152,0.,0.11584270,-0.13532681,0.,-0.003680
 60,0.00522816,0.,0.00187644,0.00132586,0.,0.00249713,-0.00053626,0.,0.
 00126410,-0.00136648,0.,0.00059331,0.00728998,0.,-0.15557158,0.1524379
 8,-0.00000001,-0.00000002,0.01565393,0.00000003,0.,-0.00826889,0.,0.,-
 0.00544070,0.,0.,0.03182395,0.,-0.00000002,-0.04323865,0.,0.,-0.007108
 97,0.,0.,-0.00056764,0.,0.,0.00284545,0.,0.,0.00355093,0.,0.,-0.013987
 21,0.,0.,0.02552089,0.00602151,0.04363926,0.,-0.00967892,-0.00172452,0
 .,0.00473091,-0.00084887,0.,-0.00915615,0.00255365,0.,-0.00106503,-0.0
 3734507,0.,-0.07107404,0.00564598,0.,0.00412933,-0.00121040,0.,0.00179
 546,0.00107104,0.,-0.00026128,0.00113242,0.,0.00093935,-0.00126410,0.,
 0.00791683,-0.00347082,0.,0.06570203,0.00344043,-0.04131370,0.,-0.0030
 4080,0.00357826,0.,0.00251270,0.00443024,0.,-0.00156008,-0.00074023,0.
 00000001,0.00222323,-0.04992510,-0.00000002,0.00548139,-0.33341859,0.,
 0.00094766,0.00311616,0.,0.00250353,-0.00230286,0.,-0.00113242,-0.0086
 4471,0.,-0.00127085,-0.00136648,0.,-0.00192623,0.00746492,0.,-0.008178
 58,0.41912209,0.,0.,0.00173785,0.,0.,0.00347475,0.,0.,0.01482959,0.,0.
 ,-0.00533197,0.,0.,-0.00451854,0.,0.,-0.02138884,0.,0.,-0.00501056,0.,
 0.,-0.00029016,0.,0.,-0.00460182,0.,0.,0.00355093,0.,0.,-0.00078309,0.
 ,0.,0.01833186\\0.00005197,-0.00029642,0.,0.00005197,0.00029642,0.,-0.
 00011326,0.00001609,0.,0.00009618,-0.00037956,0.,0.00009618,0.00037956
 ,0.,-0.00011326,-0.00001609,0.,-0.00000001,0.00004265,0.,-0.00000001,-
 0.00004265,0.,-0.00005265,-0.00003710,0.,0.00001777,0.00004734,0.,0.00
 001777,-0.00004734,0.,-0.00005265,0.00003710,0.\\\@


 FAULTILY FAULTLESS, ICILY REGULAR, SPLENDIDLY NULL...
           MAUDE BY TENNYSON
 Job cpu time:       0 days  0 hours 11 minutes 12.8 seconds.
 Elapsed time:       0 days  0 hours 11 minutes 14.3 seconds.
 File lengths (MBytes):  RWF=    156 Int=      0 D2E=      0 Chk=      8 Scr=      1
 Normal termination of Gaussian 16 at Wed Jan 29 14:59:44 2025.
