 Entering Gaussian System, Link 0=g16
 Initial command:
 /sw/cluster/pub/apps//g16/l1.exe "/data/natrosa/28452/Gau-5136.inp" -scrdir="/data/natrosa/28452/"
 Entering Link 1 = /sw/cluster/pub/apps//g16/l1.exe PID=      5137.
  
 Copyright (c) 1988,1990,1992,1993,1995,1998,2003,2009,2016,
            Gaussian, Inc.  All Rights Reserved.
  
 This is part of the Gaussian(R) 16 program.  It is based on
 the Gaussian(R) 09 system (copyright 2009, Gaussian, Inc.),
 the Gaussian(R) 03 system (copyright 2003, Gaussian, Inc.),
 the Gaussian(R) 98 system (copyright 1998, Gaussian, Inc.),
 the Gaussian(R) 94 system (copyright 1995, Gaussian, Inc.),
 the Gaussian 92(TM) system (copyright 1992, Gaussian, Inc.),
 the Gaussian 90(TM) system (copyright 1990, Gaussian, Inc.),
 the Gaussian 88(TM) system (copyright 1988, Gaussian, Inc.),
 the Gaussian 86(TM) system (copyright 1986, Carnegie Mellon
 University), and the Gaussian 82(TM) system (copyright 1983,
 Carnegie Mellon University). Gaussian is a federally registered
 trademark of Gaussian, Inc.
  
 This software contains proprietary and confidential information,
 including trade secrets, belonging to Gaussian, Inc.
  
 This software is provided under written license and may be
 used, copied, transmitted, or stored only in accord with that
 written license.
  
 The following legend is applicable only to US Government
 contracts under FAR:
  
                    RESTRICTED RIGHTS LEGEND
  
 Use, reproduction and disclosure by the US Government is
 subject to restrictions as set forth in subparagraphs (a)
 and (c) of the Commercial Computer Software - Restricted
 Rights clause in FAR 52.227-19.
  
 Gaussian, Inc.
 340 Quinnipiac St., Bldg. 40, Wallingford CT 06492
  
  
 ---------------------------------------------------------------
 Warning -- This program may not be used in any manner that
 competes with the business of Gaussian, Inc. or will provide
 assistance to any competitor of Gaussian, Inc.  The licensee
 of this program is prohibited from giving any competitor of
 Gaussian, Inc. access to this program.  By using this program,
 the user acknowledges that Gaussian, Inc. is engaged in the
 business of creating and licensing software in the field of
 computational chemistry and represents and warrants to the
 licensee that it is not a competitor of Gaussian, Inc. and that
 it will not use this program in any manner prohibited above.
 ---------------------------------------------------------------
  

 Cite this work as:
 Gaussian 16, Revision A.03,
 M. J. Frisch, G. W. Trucks, H. B. Schlegel, G. E. Scuseria, 
 M. A. Robb, J. R. Cheeseman, G. Scalmani, V. Barone, 
 G. A. Petersson, H. Nakatsuji, X. Li, M. Caricato, A. V. Marenich, 
 J. Bloino, B. G. Janesko, R. Gomperts, B. Mennucci, H. P. Hratchian, 
 J. V. Ortiz, A. F. Izmaylov, J. L. Sonnenberg, D. Williams-Young, 
 F. Ding, F. Lipparini, F. Egidi, J. Goings, B. Peng, A. Petrone, 
 T. Henderson, D. Ranasinghe, V. G. Zakrzewski, J. Gao, N. Rega, 
 G. Zheng, W. Liang, M. Hada, M. Ehara, K. Toyota, R. Fukuda, 
 J. Hasegawa, M. Ishida, T. Nakajima, Y. Honda, O. Kitao, H. Nakai, 
 T. Vreven, K. Throssell, J. A. Montgomery, Jr., J. E. Peralta, 
 F. Ogliaro, M. J. Bearpark, J. J. Heyd, E. N. Brothers, K. N. Kudin, 
 V. N. Staroverov, T. A. Keith, R. Kobayashi, J. Normand, 
 K. Raghavachari, A. P. Rendell, J. C. Burant, S. S. Iyengar, 
 J. Tomasi, M. Cossi, J. M. Millam, M. Klene, C. Adamo, R. Cammi, 
 J. W. Ochterski, R. L. Martin, K. Morokuma, O. Farkas, 
 J. B. Foresman, and D. J. Fox, Gaussian, Inc., Wallingford CT, 2016.
 
 ******************************************
 Gaussian 16:  ES64L-G16RevA.03 25-Dec-2016
                29-Jan-2025 
 ******************************************
 %chk=1-2-3-4-TtFB-CAT.chk
 --------------------------------------------------------
 #p opt freq PBE1PBE/6-311++G(d,p) density=current nosymm
 --------------------------------------------------------
 1/18=20,19=15,26=3,38=1/1,3;
 2/9=110,12=2,15=1,17=6,18=5,40=1/2;
 3/5=4,6=6,7=1111,11=2,25=1,30=1,71=1,74=-13/1,2,3;
 4//1;
 5/5=2,38=5/2;
 6/7=2,8=2,9=2,10=2,22=-1,28=1/1;
 7/30=1/1,2,3,16;
 1/18=20,19=15,26=3/3(2);
 2/9=110,15=1/2;
 99//99;
 2/9=110,15=1/2;
 3/5=4,6=6,7=1111,11=2,25=1,30=1,71=1,74=-13/1,2,3;
 4/5=5,16=3,69=1/1;
 5/5=2,38=5/2;
 7/30=1/1,2,3,16;
 1/18=20,19=15,26=3/3(-5);
 2/9=110,15=1/2;
 6/7=2,8=2,9=2,10=2,19=2,22=-1,28=1/1;
 99/9=1/99;
 Leave Link    1 at Wed Jan 29 14:40:27 2025, MaxMem=           0 cpu:               0.0 elap:               0.0
 (Enter /sw/cluster/pub/apps//g16/l101.exe)
 ---------------
 1 2 3 4 TtFB SP
 ---------------
 Symbolic Z-matrix:
 Charge =  1 Multiplicity = 2
 C                     1.20167   0.69489   0. 
 C                     1.20167  -0.69489  0. 
 C                     0.0013   -1.37812  0. 
 C                    -1.20649  -0.69384   0. 
 C                    -1.20649   0.69384   0. 
 C                     0.0013    1.37812   0. 
 H                     2.1273    1.25727  0. 
 H                     2.1273   -1.25727   0. 
 F                    -0.02336  -2.71083   0. 
 F                    -2.35749  -1.3511   0. 
 F                    -2.35749   1.3511    0. 
 F                    -0.02336   2.71083  0. 
 
 ITRead=  0  0  0  0  0  0  0  0  0  0  0  0
 MicOpt= -1 -1 -1 -1 -1 -1 -1 -1 -1 -1 -1 -1
 NAtoms=     12 NQM=       12 NQMF=       0 NMMI=      0 NMMIF=      0
                NMic=       0 NMicF=      0.
                    Isotopes and Nuclear Properties:
 (Nuclear quadrupole moments (NQMom) in fm**2, nuclear magnetic moments (NMagM)
  in nuclear magnetons)

  Atom         1           2           3           4           5           6           7           8           9          10
 IAtWgt=          12          12          12          12          12          12           1           1          19          19
 AtmWgt=  12.0000000  12.0000000  12.0000000  12.0000000  12.0000000  12.0000000   1.0078250   1.0078250  18.9984032  18.9984032
 NucSpn=           0           0           0           0           0           0           1           1           1           1
 AtZEff=  -0.0000000  -0.0000000  -0.0000000  -0.0000000  -0.0000000  -0.0000000  -0.0000000  -0.0000000  -0.0000000  -0.0000000
 NQMom=    0.0000000   0.0000000   0.0000000   0.0000000   0.0000000   0.0000000   0.0000000   0.0000000   0.0000000   0.0000000
 NMagM=    0.0000000   0.0000000   0.0000000   0.0000000   0.0000000   0.0000000   2.7928460   2.7928460   2.6288670   2.6288670
 AtZNuc=   6.0000000   6.0000000   6.0000000   6.0000000   6.0000000   6.0000000   1.0000000   1.0000000   9.0000000   9.0000000

  Atom        11          12
 IAtWgt=          19          19
 AtmWgt=  18.9984032  18.9984032
 NucSpn=           1           1
 AtZEff=  -0.0000000  -0.0000000
 NQMom=    0.0000000   0.0000000
 NMagM=    2.6288670   2.6288670
 AtZNuc=   9.0000000   9.0000000
 Leave Link  101 at Wed Jan 29 14:40:27 2025, MaxMem=   104857600 cpu:               0.0 elap:               0.0
 (Enter /sw/cluster/pub/apps//g16/l103.exe)

 GradGradGradGradGradGradGradGradGradGradGradGradGradGradGradGradGradGrad
 Berny optimization.
 Initialization pass.
                           ----------------------------
                           !    Initial Parameters    !
                           ! (Angstroms and Degrees)  !
 --------------------------                            --------------------------
 ! Name  Definition              Value          Derivative Info.                !
 --------------------------------------------------------------------------------
 ! R1    R(1,2)                  1.3898         estimate D2E/DX2                !
 ! R2    R(1,6)                  1.3812         estimate D2E/DX2                !
 ! R3    R(1,7)                  1.0831         estimate D2E/DX2                !
 ! R4    R(2,3)                  1.3812         estimate D2E/DX2                !
 ! R5    R(2,8)                  1.0831         estimate D2E/DX2                !
 ! R6    R(3,4)                  1.3882         estimate D2E/DX2                !
 ! R7    R(3,9)                  1.3329         estimate D2E/DX2                !
 ! R8    R(4,5)                  1.3877         estimate D2E/DX2                !
 ! R9    R(4,10)                 1.3254         estimate D2E/DX2                !
 ! R10   R(5,6)                  1.3882         estimate D2E/DX2                !
 ! R11   R(5,11)                 1.3254         estimate D2E/DX2                !
 ! R12   R(6,12)                 1.3329         estimate D2E/DX2                !
 ! A1    A(2,1,6)              119.6477         estimate D2E/DX2                !
 ! A2    A(2,1,7)              121.2812         estimate D2E/DX2                !
 ! A3    A(6,1,7)              119.0711         estimate D2E/DX2                !
 ! A4    A(1,2,3)              119.6477         estimate D2E/DX2                !
 ! A5    A(1,2,8)              121.2812         estimate D2E/DX2                !
 ! A6    A(3,2,8)              119.0711         estimate D2E/DX2                !
 ! A7    A(2,3,4)              120.8186         estimate D2E/DX2                !
 ! A8    A(2,3,9)              120.708          estimate D2E/DX2                !
 ! A9    A(4,3,9)              118.4734         estimate D2E/DX2                !
 ! A10   A(3,4,5)              119.5337         estimate D2E/DX2                !
 ! A11   A(3,4,10)             120.7387         estimate D2E/DX2                !
 ! A12   A(5,4,10)             119.7276         estimate D2E/DX2                !
 ! A13   A(4,5,6)              119.5337         estimate D2E/DX2                !
 ! A14   A(4,5,11)             119.7276         estimate D2E/DX2                !
 ! A15   A(6,5,11)             120.7387         estimate D2E/DX2                !
 ! A16   A(1,6,5)              120.8186         estimate D2E/DX2                !
 ! A17   A(1,6,12)             120.708          estimate D2E/DX2                !
 ! A18   A(5,6,12)             118.4734         estimate D2E/DX2                !
 ! D1    D(6,1,2,3)              0.0            estimate D2E/DX2                !
 ! D2    D(6,1,2,8)            180.0            estimate D2E/DX2                !
 ! D3    D(7,1,2,3)            180.0            estimate D2E/DX2                !
 ! D4    D(7,1,2,8)              0.0            estimate D2E/DX2                !
 ! D5    D(2,1,6,5)              0.0            estimate D2E/DX2                !
 ! D6    D(2,1,6,12)           180.0            estimate D2E/DX2                !
 ! D7    D(7,1,6,5)            180.0            estimate D2E/DX2                !
 ! D8    D(7,1,6,12)             0.0            estimate D2E/DX2                !
 ! D9    D(1,2,3,4)              0.0            estimate D2E/DX2                !
 ! D10   D(1,2,3,9)            180.0            estimate D2E/DX2                !
 ! D11   D(8,2,3,4)            180.0            estimate D2E/DX2                !
 ! D12   D(8,2,3,9)              0.0            estimate D2E/DX2                !
 ! D13   D(2,3,4,5)              0.0            estimate D2E/DX2                !
 ! D14   D(2,3,4,10)           180.0            estimate D2E/DX2                !
 ! D15   D(9,3,4,5)            180.0            estimate D2E/DX2                !
 ! D16   D(9,3,4,10)             0.0            estimate D2E/DX2                !
 ! D17   D(3,4,5,6)              0.0            estimate D2E/DX2                !
 ! D18   D(3,4,5,11)           180.0            estimate D2E/DX2                !
 ! D19   D(10,4,5,6)           180.0            estimate D2E/DX2                !
 ! D20   D(10,4,5,11)            0.0            estimate D2E/DX2                !
 ! D21   D(4,5,6,1)              0.0            estimate D2E/DX2                !
 ! D22   D(4,5,6,12)           180.0            estimate D2E/DX2                !
 ! D23   D(11,5,6,1)           180.0            estimate D2E/DX2                !
 ! D24   D(11,5,6,12)            0.0            estimate D2E/DX2                !
 --------------------------------------------------------------------------------
 Trust Radius=3.00D-01 FncErr=1.00D-07 GrdErr=1.00D-06 EigMax=2.50D+02 EigMin=1.00D-04
 Number of steps in this run=     64 maximum allowed number of steps=    100.
 GradGradGradGradGradGradGradGradGradGradGradGradGradGradGradGradGradGrad

 Leave Link  103 at Wed Jan 29 14:40:27 2025, MaxMem=   104857600 cpu:               0.0 elap:               0.0
 (Enter /sw/cluster/pub/apps//g16/l202.exe)
                          Input orientation:                          
 ---------------------------------------------------------------------
 Center     Atomic      Atomic             Coordinates (Angstroms)
 Number     Number       Type             X           Y           Z
 ---------------------------------------------------------------------
      1          6           0        1.201667    0.694892    0.000000
      2          6           0        1.201667   -0.694892   -0.000000
      3          6           0        0.001303   -1.378116   -0.000000
      4          6           0       -1.206485   -0.693845    0.000000
      5          6           0       -1.206485    0.693845    0.000000
      6          6           0        0.001303    1.378116    0.000000
      7          1           0        2.127300    1.257269   -0.000000
      8          1           0        2.127300   -1.257269    0.000000
      9          9           0       -0.023362   -2.710830    0.000000
     10          9           0       -2.357488   -1.351101   -0.000000
     11          9           0       -2.357488    1.351101    0.000000
     12          9           0       -0.023362    2.710830   -0.000000
 ---------------------------------------------------------------------
                    Distance matrix (angstroms):
                    1          2          3          4          5
     1  C    0.000000
     2  C    1.389784   0.000000
     3  C    2.395462   1.381185   0.000000
     4  C    2.779890   2.408152   1.388156   0.000000
     5  C    2.408152   2.779890   2.398286   1.387690   0.000000
     6  C    1.381185   2.395462   2.756233   2.398286   1.388156
     7  H    1.083081   2.160492   3.386018   3.862767   3.381060
     8  H    2.160492   1.083081   2.129429   3.381060   3.862767
     9  F    3.619342   2.358962   1.332942   2.338377   3.604385
    10  F    4.105323   3.619143   2.358946   1.325441   2.346618
    11  F    3.619143   4.105323   3.607288   2.346618   1.325441
    12  F    2.358962   3.619342   4.089021   3.604385   2.338377
                    6          7          8          9         10
     6  C    0.000000
     7  H    2.129429   0.000000
     8  H    3.386018   2.514537   0.000000
     9  F    4.089021   4.513441   2.595802   0.000000
    10  F    3.607288   5.188152   4.485770   2.701297   0.000000
    11  F    2.358946   4.485770   5.188152   4.684809   2.702203
    12  F    1.332942   2.595802   4.513441   5.421660   4.684809
                   11         12
    11  F    0.000000
    12  F    2.701297   0.000000
 Symmetry turned off by external request.
 Stoichiometry    C6H2F4(1+,2)
 Framework group  C2V[SGV(C6H2F4)]
 Deg. of freedom    11
 Full point group                 C2V     NOp   4
 Rotational constants (GHZ):           2.1030619           1.2018648           0.7647964
 Leave Link  202 at Wed Jan 29 14:40:27 2025, MaxMem=   104857600 cpu:               0.0 elap:               0.2
 (Enter /sw/cluster/pub/apps//g16/l301.exe)
 Standard basis: 6-311++G(d,p) (5D, 7F)
 Ernie: Thresh=  0.10000D-02 Tol=  0.10000D-05 Strict=F.
   234 basis functions,   378 primitive gaussians,   244 cartesian basis functions
    37 alpha electrons       36 beta electrons
       nuclear repulsion energy       526.0568167366 Hartrees.
 IExCor= 1009 DFT=T Ex+Corr=PBE1PBE ExCW=0 ScaHFX=  0.250000
 ScaDFX=  0.750000  0.750000  1.000000  1.000000 ScalE2=  1.000000  1.000000
 IRadAn=      5 IRanWt=     -1 IRanGd=            0 ICorTp=0 IEmpDi=  4
 NAtoms=   12 NActive=   12 NUniq=   12 SFac= 1.00D+00 NAtFMM=   60 NAOKFM=F Big=F
 Integral buffers will be    131072 words long.
 Raffenetti 2 integral format.
 Two-electron integral symmetry is turned off.
 Leave Link  301 at Wed Jan 29 14:40:28 2025, MaxMem=   104857600 cpu:               0.0 elap:               0.0
 (Enter /sw/cluster/pub/apps//g16/l302.exe)
 NPDir=0 NMtPBC=     1 NCelOv=     1 NCel=       1 NClECP=     1 NCelD=      1
         NCelK=      1 NCelE2=     1 NClLst=     1 CellRange=     0.0.
 One-electron integrals computed using PRISM.
 NBasis=   234 RedAO= T EigKep=  1.86D-06  NBF=   234
 NBsUse=   234 1.00D-06 EigRej= -1.00D+00 NBFU=   234
 Precomputing XC quadrature grid using
 IXCGrd= 4 IRadAn=           5 IRanWt=          -1 IRanGd=           0 AccXCQ= 0.00D+00.
 Generated NRdTot=       0 NPtTot=           0 NUsed=           0 NTot=          32
 NSgBfM=   244   244   244   244   244 MxSgAt=    12 MxSgA2=    12.
 Leave Link  302 at Wed Jan 29 14:40:28 2025, MaxMem=   104857600 cpu:               0.1 elap:               0.2
 (Enter /sw/cluster/pub/apps//g16/l303.exe)
 DipDrv:  MaxL=1.
 Leave Link  303 at Wed Jan 29 14:40:28 2025, MaxMem=   104857600 cpu:               0.0 elap:               0.0
 (Enter /sw/cluster/pub/apps//g16/l401.exe)
 ExpMin= 3.60D-02 ExpMax= 1.14D+04 ExpMxC= 1.72D+03 IAcc=3 IRadAn=         5 AccDes= 0.00D+00
 Harris functional with IExCor= 1009 and IRadAn=       5 diagonalized for initial guess.
 HarFok:  IExCor= 1009 AccDes= 0.00D+00 IRadAn=         5 IDoV= 1 UseB2=F ITyADJ=14
 ICtDFT=  3500011 ScaDFX=  1.000000  1.000000  1.000000  1.000000
 FoFCou: FMM=F IPFlag=           0 FMFlag=      100000 FMFlg1=           0
         NFxFlg=           0 DoJE=T BraDBF=F KetDBF=T FulRan=T
         wScrn=  0.000000 ICntrl=       500 IOpCl=  0 I1Cent=   200000004 NGrid=           0
         NMat0=    1 NMatS0=      1 NMatT0=    0 NMatD0=    1 NMtDS0=    0 NMtDT0=    0
 Symmetry not used in FoFCou.
 Harris En= -628.450597420365    
 JPrj=0 DoOrth=F DoCkMO=F.
 Initial guess <Sx>= 0.0000 <Sy>= 0.0000 <Sz>= 0.5000 <S**2>= 0.7500 S= 0.5000
 Leave Link  401 at Wed Jan 29 14:40:30 2025, MaxMem=   104857600 cpu:               1.7 elap:               1.7
 (Enter /sw/cluster/pub/apps//g16/l502.exe)
 Two-electron integral symmetry not used.
 UHF open shell SCF:
 Using DIIS extrapolation, IDIIS=  1040.
 NGot=   104857600 LenX=   104735324 LenY=   104675347
 Requested convergence on RMS density matrix=1.00D-08 within 128 cycles.
 Requested convergence on MAX density matrix=1.00D-06.
 Requested convergence on             energy=1.00D-06.
 No special actions if energy rises.
 Fock matrices will be formed incrementally for  20 cycles.

 Cycle   1  Pass 1  IDiag  1:
 FoFJK:  IHMeth= 1 ICntrl=       0 DoSepK=F KAlg= 0 I1Cent=           0 FoldK=F
 IRaf= 930000000 NMat=       1 IRICut=       1 DoRegI=T DoRafI=F ISym2E= 0 IDoP0=0 IntGTp=1.
 FoFCou: FMM=F IPFlag=           0 FMFlag=      100000 FMFlg1=           0
         NFxFlg=           0 DoJE=F BraDBF=F KetDBF=F FulRan=T
         wScrn=  0.000000 ICntrl=         0 IOpCl=  1 I1Cent=           0 NGrid=           0
         NMat0=    1 NMatS0=      1 NMatT0=    0 NMatD0=    1 NMtDS0=    0 NMtDT0=    0
 Symmetry not used in FoFCou.
 E= -628.271377782667    
 DIIS: error= 2.43D-02 at cycle   1 NSaved=   1.
 NSaved= 1 IEnMin= 1 EnMin= -628.271377782667     IErMin= 1 ErrMin= 2.43D-02
 ErrMax= 2.43D-02  0.00D+00 EMaxC= 1.00D-01 BMatC= 4.78D-01 BMatP= 4.78D-01
 IDIUse=3 WtCom= 7.57D-01 WtEn= 2.43D-01
 Coeff-Com:  0.100D+01
 Coeff-En:   0.100D+01
 Coeff:      0.100D+01
 Gap=     0.290 Goal=   None    Shift=    0.000
 Gap=     0.072 Goal=   None    Shift=    0.000
 GapD=    0.072 DampG=0.500 DampE=0.500 DampFc=0.2500 IDamp=-1.
 Damping current iteration by 2.50D-01
 RMSDP=2.08D-02 MaxDP=6.36D-01              OVMax= 2.26D-01

 Cycle   2  Pass 1  IDiag  1:
 RMSU=  4.86D-03    CP:  1.03D+00
 E= -628.300201833386     Delta-E=       -0.028824050720 Rises=F Damp=T
 DIIS: error= 1.04D-02 at cycle   2 NSaved=   2.
 NSaved= 2 IEnMin= 2 EnMin= -628.300201833386     IErMin= 2 ErrMin= 1.04D-02
 ErrMax= 1.04D-02  0.00D+00 EMaxC= 1.00D-01 BMatC= 1.59D-01 BMatP= 4.78D-01
 IDIUse=3 WtCom= 8.96D-01 WtEn= 1.04D-01
 Coeff-Com: -0.970D+00 0.197D+01
 Coeff-En:   0.000D+00 0.100D+01
 Coeff:     -0.869D+00 0.187D+01
 Gap=     0.250 Goal=   None    Shift=    0.000
 Gap=     0.092 Goal=   None    Shift=    0.000
 RMSDP=1.00D-02 MaxDP=4.40D-01 DE=-2.88D-02 OVMax= 1.50D-01

 Cycle   3  Pass 1  IDiag  1:
 RMSU=  2.53D-03    CP:  1.05D+00  2.99D+00
 E= -628.351285697361     Delta-E=       -0.051083863975 Rises=F Damp=F
 DIIS: error= 8.51D-03 at cycle   3 NSaved=   3.
 NSaved= 3 IEnMin= 3 EnMin= -628.351285697361     IErMin= 3 ErrMin= 8.51D-03
 ErrMax= 8.51D-03  0.00D+00 EMaxC= 1.00D-01 BMatC= 2.08D-02 BMatP= 1.59D-01
 IDIUse=3 WtCom= 9.15D-01 WtEn= 8.51D-02
 Coeff-Com: -0.485D+00 0.763D+00 0.721D+00
 Coeff-En:   0.000D+00 0.000D+00 0.100D+01
 Coeff:     -0.443D+00 0.698D+00 0.745D+00
 Gap=     0.249 Goal=   None    Shift=    0.000
 Gap=     0.077 Goal=   None    Shift=    0.000
 RMSDP=8.68D-04 MaxDP=5.01D-02 DE=-5.11D-02 OVMax= 3.73D-02

 Cycle   4  Pass 1  IDiag  1:
 RMSU=  6.65D-04    CP:  1.04D+00  3.00D+00  8.85D-01
 E= -628.355767579700     Delta-E=       -0.004481882339 Rises=F Damp=F
 DIIS: error= 2.52D-03 at cycle   4 NSaved=   4.
 NSaved= 4 IEnMin= 4 EnMin= -628.355767579700     IErMin= 4 ErrMin= 2.52D-03
 ErrMax= 2.52D-03  0.00D+00 EMaxC= 1.00D-01 BMatC= 3.63D-03 BMatP= 2.08D-02
 IDIUse=3 WtCom= 9.75D-01 WtEn= 2.52D-02
 Coeff-Com: -0.179D+00 0.265D+00 0.388D+00 0.526D+00
 Coeff-En:   0.000D+00 0.000D+00 0.410D-01 0.959D+00
 Coeff:     -0.174D+00 0.258D+00 0.379D+00 0.537D+00
 Gap=     0.246 Goal=   None    Shift=    0.000
 Gap=     0.073 Goal=   None    Shift=    0.000
 RMSDP=6.52D-04 MaxDP=2.19D-02 DE=-4.48D-03 OVMax= 9.68D-03

 Cycle   5  Pass 1  IDiag  1:
 RMSU=  2.71D-04    CP:  1.03D+00  2.94D+00  9.40D-01  7.60D-01
 E= -628.356485488511     Delta-E=       -0.000717908810 Rises=F Damp=F
 DIIS: error= 7.95D-04 at cycle   5 NSaved=   5.
 NSaved= 5 IEnMin= 5 EnMin= -628.356485488511     IErMin= 5 ErrMin= 7.95D-04
 ErrMax= 7.95D-04  0.00D+00 EMaxC= 1.00D-01 BMatC= 3.47D-04 BMatP= 3.63D-03
 IDIUse=3 WtCom= 9.92D-01 WtEn= 7.95D-03
 Coeff-Com: -0.271D-01 0.329D-01 0.972D-01 0.273D+00 0.624D+00
 Coeff-En:   0.000D+00 0.000D+00 0.000D+00 0.000D+00 0.100D+01
 Coeff:     -0.268D-01 0.326D-01 0.964D-01 0.270D+00 0.627D+00
 Gap=     0.245 Goal=   None    Shift=    0.000
 Gap=     0.075 Goal=   None    Shift=    0.000
 RMSDP=2.07D-04 MaxDP=6.72D-03 DE=-7.18D-04 OVMax= 3.59D-03

 Cycle   6  Pass 1  IDiag  1:
 RMSU=  6.81D-05    CP:  1.03D+00  2.97D+00  9.42D-01  7.84D-01  9.27D-01
 E= -628.356551690722     Delta-E=       -0.000066202211 Rises=F Damp=F
 DIIS: error= 3.67D-04 at cycle   6 NSaved=   6.
 NSaved= 6 IEnMin= 6 EnMin= -628.356551690722     IErMin= 6 ErrMin= 3.67D-04
 ErrMax= 3.67D-04  0.00D+00 EMaxC= 1.00D-01 BMatC= 3.81D-05 BMatP= 3.47D-04
 IDIUse=3 WtCom= 9.96D-01 WtEn= 3.67D-03
 Coeff-Com:  0.783D-02-0.142D-01 0.225D-03 0.698D-01 0.271D+00 0.665D+00
 Coeff-En:   0.000D+00 0.000D+00 0.000D+00 0.000D+00 0.000D+00 0.100D+01
 Coeff:      0.780D-02-0.141D-01 0.224D-03 0.696D-01 0.270D+00 0.666D+00
 Gap=     0.245 Goal=   None    Shift=    0.000
 Gap=     0.076 Goal=   None    Shift=    0.000
 RMSDP=3.92D-05 MaxDP=2.36D-03 DE=-6.62D-05 OVMax= 1.95D-03

 Cycle   7  Pass 1  IDiag  1:
 RMSU=  2.33D-05    CP:  1.03D+00  2.97D+00  9.44D-01  8.17D-01  9.82D-01
                    CP:  1.12D+00
 E= -628.356562918697     Delta-E=       -0.000011227975 Rises=F Damp=F
 DIIS: error= 1.88D-04 at cycle   7 NSaved=   7.
 NSaved= 7 IEnMin= 7 EnMin= -628.356562918697     IErMin= 7 ErrMin= 1.88D-04
 ErrMax= 1.88D-04  0.00D+00 EMaxC= 1.00D-01 BMatC= 1.06D-05 BMatP= 3.81D-05
 IDIUse=3 WtCom= 9.98D-01 WtEn= 1.88D-03
 Coeff-Com:  0.118D-01-0.165D-01-0.300D-01-0.568D-01-0.995D-01 0.309D+00
 Coeff-Com:  0.882D+00
 Coeff-En:   0.000D+00 0.000D+00 0.000D+00 0.000D+00 0.000D+00 0.000D+00
 Coeff-En:   0.100D+01
 Coeff:      0.118D-01-0.165D-01-0.299D-01-0.567D-01-0.993D-01 0.308D+00
 Coeff:      0.882D+00
 Gap=     0.245 Goal=   None    Shift=    0.000
 Gap=     0.076 Goal=   None    Shift=    0.000
 RMSDP=3.46D-05 MaxDP=1.85D-03 DE=-1.12D-05 OVMax= 1.19D-03

 Cycle   8  Pass 1  IDiag  1:
 RMSU=  2.47D-05    CP:  1.03D+00  2.98D+00  9.47D-01  8.05D-01  1.03D+00
                    CP:  1.33D+00  1.11D+00
 E= -628.356566826695     Delta-E=       -0.000003907998 Rises=F Damp=F
 DIIS: error= 8.27D-05 at cycle   8 NSaved=   8.
 NSaved= 8 IEnMin= 8 EnMin= -628.356566826695     IErMin= 8 ErrMin= 8.27D-05
 ErrMax= 8.27D-05  0.00D+00 EMaxC= 1.00D-01 BMatC= 2.43D-06 BMatP= 1.06D-05
 IDIUse=1 WtCom= 1.00D+00 WtEn= 0.00D+00
 Coeff-Com:  0.481D-02-0.621D-02-0.140D-01-0.361D-01-0.806D-01 0.466D-01
 Coeff-Com:  0.481D+00 0.604D+00
 Coeff:      0.481D-02-0.621D-02-0.140D-01-0.361D-01-0.806D-01 0.466D-01
 Coeff:      0.481D+00 0.604D+00
 Gap=     0.245 Goal=   None    Shift=    0.000
 Gap=     0.076 Goal=   None    Shift=    0.000
 RMSDP=1.26D-05 MaxDP=4.76D-04 DE=-3.91D-06 OVMax= 4.57D-04

 Cycle   9  Pass 1  IDiag  1:
 RMSU=  5.10D-06    CP:  1.03D+00  2.97D+00  9.47D-01  8.12D-01  1.04D+00
                    CP:  1.38D+00  1.25D+00  9.14D-01
 E= -628.356567382457     Delta-E=       -0.000000555762 Rises=F Damp=F
 DIIS: error= 2.22D-05 at cycle   9 NSaved=   9.
 NSaved= 9 IEnMin= 9 EnMin= -628.356567382457     IErMin= 9 ErrMin= 2.22D-05
 ErrMax= 2.22D-05  0.00D+00 EMaxC= 1.00D-01 BMatC= 2.59D-07 BMatP= 2.43D-06
 IDIUse=1 WtCom= 1.00D+00 WtEn= 0.00D+00
 Coeff-Com:  0.110D-02-0.132D-02-0.334D-02-0.115D-01-0.282D-01-0.179D-01
 Coeff-Com:  0.143D+00 0.287D+00 0.631D+00
 Coeff:      0.110D-02-0.132D-02-0.334D-02-0.115D-01-0.282D-01-0.179D-01
 Coeff:      0.143D+00 0.287D+00 0.631D+00
 Gap=     0.245 Goal=   None    Shift=    0.000
 Gap=     0.076 Goal=   None    Shift=    0.000
 RMSDP=3.45D-06 MaxDP=1.85D-04 DE=-5.56D-07 OVMax= 1.24D-04

 Cycle  10  Pass 1  IDiag  1:
 RMSU=  2.05D-06    CP:  1.03D+00  2.97D+00  9.47D-01  8.11D-01  1.04D+00
                    CP:  1.39D+00  1.29D+00  9.62D-01  7.02D-01
 E= -628.356567435105     Delta-E=       -0.000000052648 Rises=F Damp=F
 DIIS: error= 1.02D-05 at cycle  10 NSaved=  10.
 NSaved=10 IEnMin=10 EnMin= -628.356567435105     IErMin=10 ErrMin= 1.02D-05
 ErrMax= 1.02D-05  0.00D+00 EMaxC= 1.00D-01 BMatC= 3.38D-08 BMatP= 2.59D-07
 IDIUse=1 WtCom= 1.00D+00 WtEn= 0.00D+00
 Coeff-Com: -0.553D-03 0.768D-03 0.172D-02 0.354D-02 0.721D-02-0.159D-01
 Coeff-Com: -0.496D-01-0.232D-01 0.260D+00 0.816D+00
 Coeff:     -0.553D-03 0.768D-03 0.172D-02 0.354D-02 0.721D-02-0.159D-01
 Coeff:     -0.496D-01-0.232D-01 0.260D+00 0.816D+00
 Gap=     0.245 Goal=   None    Shift=    0.000
 Gap=     0.076 Goal=   None    Shift=    0.000
 RMSDP=1.72D-06 MaxDP=7.05D-05 DE=-5.26D-08 OVMax= 4.76D-05

 Cycle  11  Pass 1  IDiag  1:
 RMSU=  6.61D-07    CP:  1.03D+00  2.97D+00  9.47D-01  8.11D-01  1.04D+00
                    CP:  1.39D+00  1.30D+00  9.74D-01  7.62D-01  1.07D+00
 E= -628.356567445190     Delta-E=       -0.000000010085 Rises=F Damp=F
 DIIS: error= 1.94D-06 at cycle  11 NSaved=  11.
 NSaved=11 IEnMin=11 EnMin= -628.356567445190     IErMin=11 ErrMin= 1.94D-06
 ErrMax= 1.94D-06  0.00D+00 EMaxC= 1.00D-01 BMatC= 1.40D-09 BMatP= 3.38D-08
 IDIUse=1 WtCom= 1.00D+00 WtEn= 0.00D+00
 Coeff-Com: -0.165D-03 0.211D-03 0.435D-03 0.130D-02 0.284D-02 0.117D-02
 Coeff-Com: -0.181D-01-0.238D-01-0.406D-01 0.431D-01 0.103D+01
 Coeff:     -0.165D-03 0.211D-03 0.435D-03 0.130D-02 0.284D-02 0.117D-02
 Coeff:     -0.181D-01-0.238D-01-0.406D-01 0.431D-01 0.103D+01
 Gap=     0.245 Goal=   None    Shift=    0.000
 Gap=     0.076 Goal=   None    Shift=    0.000
 RMSDP=5.86D-07 MaxDP=2.10D-05 DE=-1.01D-08 OVMax= 1.36D-05

 Cycle  12  Pass 1  IDiag  1:
 RMSU=  2.54D-07    CP:  1.03D+00  2.97D+00  9.47D-01  8.11D-01  1.04D+00
                    CP:  1.39D+00  1.30D+00  9.76D-01  7.77D-01  1.13D+00
                    CP:  1.06D+00
 E= -628.356567445852     Delta-E=       -0.000000000662 Rises=F Damp=F
 DIIS: error= 5.35D-07 at cycle  12 NSaved=  12.
 NSaved=12 IEnMin=12 EnMin= -628.356567445852     IErMin=12 ErrMin= 5.35D-07
 ErrMax= 5.35D-07  0.00D+00 EMaxC= 1.00D-01 BMatC= 1.47D-10 BMatP= 1.40D-09
 IDIUse=1 WtCom= 1.00D+00 WtEn= 0.00D+00
 Coeff-Com:  0.185D-04-0.274D-04-0.108D-03-0.218D-03-0.441D-03 0.148D-02
 Coeff-Com:  0.228D-02 0.351D-02-0.284D-01-0.713D-01 0.101D+00 0.992D+00
 Coeff:      0.185D-04-0.274D-04-0.108D-03-0.218D-03-0.441D-03 0.148D-02
 Coeff:      0.228D-02 0.351D-02-0.284D-01-0.713D-01 0.101D+00 0.992D+00
 Gap=     0.245 Goal=   None    Shift=    0.000
 Gap=     0.076 Goal=   None    Shift=    0.000
 RMSDP=1.95D-07 MaxDP=5.33D-06 DE=-6.62D-10 OVMax= 2.83D-06

 Cycle  13  Pass 1  IDiag  1:
 RMSU=  5.22D-08    CP:  1.03D+00  2.97D+00  9.47D-01  8.11D-01  1.04D+00
                    CP:  1.39D+00  1.30D+00  9.78D-01  7.72D-01  1.15D+00
                    CP:  1.14D+00  1.04D+00
 E= -628.356567445901     Delta-E=       -0.000000000050 Rises=F Damp=F
 DIIS: error= 8.47D-08 at cycle  13 NSaved=  13.
 NSaved=13 IEnMin=13 EnMin= -628.356567445901     IErMin=13 ErrMin= 8.47D-08
 ErrMax= 8.47D-08  0.00D+00 EMaxC= 1.00D-01 BMatC= 4.33D-12 BMatP= 1.47D-10
 IDIUse=1 WtCom= 1.00D+00 WtEn= 0.00D+00
 Coeff-Com:  0.512D-05-0.672D-05-0.174D-04-0.485D-04-0.528D-04-0.119D-03
 Coeff-Com:  0.656D-03 0.908D-03 0.154D-02-0.594D-03-0.481D-01-0.208D-02
 Coeff-Com:  0.105D+01
 Coeff:      0.512D-05-0.672D-05-0.174D-04-0.485D-04-0.528D-04-0.119D-03
 Coeff:      0.656D-03 0.908D-03 0.154D-02-0.594D-03-0.481D-01-0.208D-02
 Coeff:      0.105D+01
 Gap=     0.245 Goal=   None    Shift=    0.000
 Gap=     0.076 Goal=   None    Shift=    0.000
 RMSDP=4.74D-08 MaxDP=1.58D-06 DE=-4.96D-11 OVMax= 7.93D-07

 Cycle  14  Pass 1  IDiag  1:
 RMSU=  1.01D-08    CP:  1.03D+00  2.97D+00  9.47D-01  8.11D-01  1.04D+00
                    CP:  1.39D+00  1.30D+00  9.78D-01  7.72D-01  1.15D+00
                    CP:  1.14D+00  1.08D+00  1.21D+00
 E= -628.356567445908     Delta-E=       -0.000000000006 Rises=F Damp=F
 DIIS: error= 2.26D-08 at cycle  14 NSaved=  14.
 NSaved=14 IEnMin=14 EnMin= -628.356567445908     IErMin=14 ErrMin= 2.26D-08
 ErrMax= 2.26D-08  0.00D+00 EMaxC= 1.00D-01 BMatC= 3.19D-13 BMatP= 4.33D-12
 IDIUse=1 WtCom= 1.00D+00 WtEn= 0.00D+00
 Coeff-Com: -0.319D-06 0.636D-06 0.444D-05 0.777D-05 0.100D-04-0.715D-04
 Coeff-Com: -0.100D-03-0.139D-03 0.193D-02 0.402D-02-0.102D-01-0.566D-01
 Coeff-Com:  0.678D-01 0.993D+00
 Coeff:     -0.319D-06 0.636D-06 0.444D-05 0.777D-05 0.100D-04-0.715D-04
 Coeff:     -0.100D-03-0.139D-03 0.193D-02 0.402D-02-0.102D-01-0.566D-01
 Coeff:      0.678D-01 0.993D+00
 Gap=     0.245 Goal=   None    Shift=    0.000
 Gap=     0.076 Goal=   None    Shift=    0.000
 RMSDP=1.10D-08 MaxDP=3.50D-07 DE=-6.37D-12 OVMax= 1.74D-07

 Cycle  15  Pass 1  IDiag  1:
 RMSU=  3.99D-09    CP:  1.03D+00  2.97D+00  9.47D-01  8.11D-01  1.04D+00
                    CP:  1.39D+00  1.30D+00  9.78D-01  7.72D-01  1.15D+00
                    CP:  1.14D+00  1.08D+00  1.25D+00  1.09D+00
 E= -628.356567445909     Delta-E=       -0.000000000001 Rises=F Damp=F
 DIIS: error= 3.37D-09 at cycle  15 NSaved=  15.
 NSaved=15 IEnMin=15 EnMin= -628.356567445909     IErMin=15 ErrMin= 3.37D-09
 ErrMax= 3.37D-09  0.00D+00 EMaxC= 1.00D-01 BMatC= 1.09D-14 BMatP= 3.19D-13
 IDIUse=1 WtCom= 1.00D+00 WtEn= 0.00D+00
 Coeff-Com: -0.341D-06 0.459D-06 0.152D-05 0.398D-05 0.482D-05 0.414D-05
 Coeff-Com: -0.487D-04-0.689D-04-0.617D-04 0.195D-03 0.284D-02-0.177D-02
 Coeff-Com: -0.621D-01 0.270D-01 0.103D+01
 Coeff:     -0.341D-06 0.459D-06 0.152D-05 0.398D-05 0.482D-05 0.414D-05
 Coeff:     -0.487D-04-0.689D-04-0.617D-04 0.195D-03 0.284D-02-0.177D-02
 Coeff:     -0.621D-01 0.270D-01 0.103D+01
 Gap=     0.245 Goal=   None    Shift=    0.000
 Gap=     0.076 Goal=   None    Shift=    0.000
 RMSDP=1.66D-09 MaxDP=9.29D-08 DE=-1.36D-12 OVMax= 4.82D-08

 SCF Done:  E(UPBE1PBE) =  -628.356567446     A.U. after   15 cycles
            NFock= 15  Conv=0.17D-08     -V/T= 2.0028
 <Sx>= 0.0000 <Sy>= 0.0000 <Sz>= 0.5000 <S**2>= 0.7619 S= 0.5059
 <L.S>=  0.00000000000    
 KE= 6.265742366738D+02 PE=-2.521332162244D+03 EE= 7.403445413874D+02
 Annihilation of the first spin contaminant:
 S**2 before annihilation     0.7619,   after     0.7500
 Leave Link  502 at Wed Jan 29 14:42:01 2025, MaxMem=   104857600 cpu:              91.5 elap:              91.7
 (Enter /sw/cluster/pub/apps//g16/l601.exe)
 Copying SCF densities to generalized density rwf, IOpCl= 1 IROHF=0.

 **********************************************************************

            Population analysis using the SCF density.

 **********************************************************************

 Alpha  occ. eigenvalues --  -25.04388 -25.04387 -25.01836 -25.01835 -10.60682
 Alpha  occ. eigenvalues --  -10.60681 -10.58004 -10.57944 -10.49996 -10.49935
 Alpha  occ. eigenvalues --   -1.52693  -1.52532  -1.50652  -1.49358  -1.17921
 Alpha  occ. eigenvalues --   -1.05918  -1.04750  -0.92720  -0.91636  -0.84178
 Alpha  occ. eigenvalues --   -0.82480  -0.81934  -0.78855  -0.77410  -0.76408
 Alpha  occ. eigenvalues --   -0.75077  -0.72032  -0.71158  -0.70545  -0.69636
 Alpha  occ. eigenvalues --   -0.66932  -0.66450  -0.63373  -0.62660  -0.62289
 Alpha  occ. eigenvalues --   -0.53149  -0.51247
 Alpha virt. eigenvalues --   -0.26768  -0.25913  -0.20767  -0.14178  -0.13963
 Alpha virt. eigenvalues --   -0.09651  -0.09564  -0.09302  -0.09207  -0.08112
 Alpha virt. eigenvalues --   -0.06198  -0.05135  -0.04990  -0.04582  -0.03990
 Alpha virt. eigenvalues --   -0.02112  -0.01573  -0.01039  -0.00274   0.00302
 Alpha virt. eigenvalues --    0.00497   0.00524   0.01201   0.01952   0.04137
 Alpha virt. eigenvalues --    0.04410   0.05738   0.07144   0.07449   0.07504
 Alpha virt. eigenvalues --    0.08831   0.09475   0.10280   0.10306   0.12885
 Alpha virt. eigenvalues --    0.13678   0.14824   0.15713   0.16766   0.18135
 Alpha virt. eigenvalues --    0.18219   0.19331   0.20001   0.21386   0.22288
 Alpha virt. eigenvalues --    0.23050   0.25003   0.25389   0.27333   0.27525
 Alpha virt. eigenvalues --    0.27744   0.28381   0.29027   0.32903   0.35240
 Alpha virt. eigenvalues --    0.35421   0.35722   0.36215   0.36382   0.36772
 Alpha virt. eigenvalues --    0.38492   0.38581   0.41596   0.42116   0.42127
 Alpha virt. eigenvalues --    0.49068   0.49441   0.52375   0.53455   0.57851
 Alpha virt. eigenvalues --    0.57969   0.60851   0.64060   0.65640   0.66498
 Alpha virt. eigenvalues --    0.68959   0.70455   0.75802   0.76295   0.76355
 Alpha virt. eigenvalues --    0.76785   0.84376   0.85244   0.87044   0.87312
 Alpha virt. eigenvalues --    0.89339   0.92131   0.95187   1.07267   1.09528
 Alpha virt. eigenvalues --    1.19014   1.19702   1.21899   1.23382   1.24014
 Alpha virt. eigenvalues --    1.24809   1.25995   1.27070   1.29055   1.30472
 Alpha virt. eigenvalues --    1.33465   1.34168   1.36699   1.36815   1.37610
 Alpha virt. eigenvalues --    1.37980   1.39354   1.42119   1.45026   1.51814
 Alpha virt. eigenvalues --    1.55933   1.57797   1.60519   1.61685   1.62787
 Alpha virt. eigenvalues --    1.63529   1.72124   1.74234   1.76453   1.77539
 Alpha virt. eigenvalues --    1.83945   1.84886   1.88224   1.91596   1.96042
 Alpha virt. eigenvalues --    1.99387   1.99594   2.04340   2.06453   2.18516
 Alpha virt. eigenvalues --    2.19651   2.35097   2.40321   2.43041   2.46760
 Alpha virt. eigenvalues --    2.50974   2.51523   2.54022   2.55818   2.59936
 Alpha virt. eigenvalues --    2.63698   2.83242   2.87196   2.88793   2.92238
 Alpha virt. eigenvalues --    2.97811   2.99170   3.12880   3.17464   3.33680
 Alpha virt. eigenvalues --    3.45368   3.52254   3.54936   3.55496   3.56777
 Alpha virt. eigenvalues --    3.57475   3.58898   3.63459   3.63660   3.69786
 Alpha virt. eigenvalues --    3.73681   3.75834   3.77522   3.79258   3.80786
 Alpha virt. eigenvalues --    3.84142   3.88629   3.89635   3.96381   4.02851
 Alpha virt. eigenvalues --    4.52186   4.63821   4.63953   4.71179   4.79600
 Alpha virt. eigenvalues --    6.09241   6.12232   6.14793   6.19269   6.19545
 Alpha virt. eigenvalues --    6.24978   6.28346   6.35908   6.40644   6.58705
 Alpha virt. eigenvalues --    6.63502   6.72142  23.27342  23.67714  23.74353
 Alpha virt. eigenvalues --   23.88125  23.88267  24.02070  66.67404  66.70263
 Alpha virt. eigenvalues --   66.72393  66.77961
  Beta  occ. eigenvalues --  -25.04018 -25.04018 -25.01778 -25.01777 -10.60082
  Beta  occ. eigenvalues --  -10.60081 -10.57994 -10.57933 -10.49925 -10.49863
  Beta  occ. eigenvalues --   -1.52024  -1.51766  -1.50393  -1.49188  -1.16881
  Beta  occ. eigenvalues --   -1.04500  -1.04081  -0.92144  -0.91057  -0.83887
  Beta  occ. eigenvalues --   -0.82250  -0.81562  -0.78552  -0.76209  -0.75431
  Beta  occ. eigenvalues --   -0.72355  -0.71062  -0.70602  -0.70261  -0.68923
  Beta  occ. eigenvalues --   -0.66800  -0.66159  -0.63039  -0.62436  -0.59350
  Beta  occ. eigenvalues --   -0.50668
  Beta virt. eigenvalues --   -0.43054  -0.24393  -0.22798  -0.20377  -0.14060
  Beta virt. eigenvalues --   -0.13434  -0.09481  -0.09341  -0.09112  -0.07894
  Beta virt. eigenvalues --   -0.07140  -0.06053  -0.04937  -0.04856  -0.04247
  Beta virt. eigenvalues --   -0.03788  -0.01976  -0.01472  -0.00614  -0.00243
  Beta virt. eigenvalues --    0.00440   0.00670   0.00792   0.01618   0.02293
  Beta virt. eigenvalues --    0.04249   0.04508   0.05808   0.07220   0.07664
  Beta virt. eigenvalues --    0.08224   0.08866   0.09527   0.10536   0.10631
  Beta virt. eigenvalues --    0.13097   0.13805   0.15052   0.15925   0.16953
  Beta virt. eigenvalues --    0.18235   0.18347   0.19562   0.20073   0.21476
  Beta virt. eigenvalues --    0.22346   0.23160   0.25132   0.25469   0.27412
  Beta virt. eigenvalues --    0.27753   0.27817   0.28450   0.30012   0.33038
  Beta virt. eigenvalues --    0.35526   0.35684   0.36299   0.36699   0.37000
  Beta virt. eigenvalues --    0.37372   0.38628   0.38683   0.42249   0.42675
  Beta virt. eigenvalues --    0.42742   0.49714   0.49750   0.53082   0.54092
  Beta virt. eigenvalues --    0.58047   0.58158   0.61010   0.64501   0.66393
  Beta virt. eigenvalues --    0.66639   0.69351   0.71900   0.76204   0.76550
  Beta virt. eigenvalues --    0.77110   0.77170   0.84478   0.85415   0.87453
  Beta virt. eigenvalues --    0.87815   0.91084   0.93713   0.95931   1.07822
  Beta virt. eigenvalues --    1.10290   1.19580   1.19939   1.22141   1.24183
  Beta virt. eigenvalues --    1.24191   1.25284   1.26074   1.27468   1.29494
  Beta virt. eigenvalues --    1.30559   1.33753   1.34870   1.36833   1.36875
  Beta virt. eigenvalues --    1.37799   1.38112   1.39984   1.43026   1.45339
  Beta virt. eigenvalues --    1.52082   1.57487   1.58105   1.61158   1.62458
  Beta virt. eigenvalues --    1.64237   1.64331   1.72315   1.74454   1.76627
  Beta virt. eigenvalues --    1.77917   1.84890   1.85253   1.88951   1.92282
  Beta virt. eigenvalues --    1.96543   1.99646   1.99820   2.05466   2.06596
  Beta virt. eigenvalues --    2.18932   2.19921   2.36538   2.40512   2.43178
  Beta virt. eigenvalues --    2.48813   2.51008   2.52308   2.54171   2.55929
  Beta virt. eigenvalues --    2.61910   2.64217   2.84687   2.87520   2.89112
  Beta virt. eigenvalues --    2.92403   2.97978   2.99470   3.13407   3.17588
  Beta virt. eigenvalues --    3.34001   3.45829   3.52688   3.55855   3.56470
  Beta virt. eigenvalues --    3.57433   3.57759   3.59135   3.63924   3.64323
  Beta virt. eigenvalues --    3.70490   3.74374   3.76811   3.77615   3.79886
  Beta virt. eigenvalues --    3.81497   3.84496   3.88857   3.89806   3.96521
  Beta virt. eigenvalues --    4.02962   4.52464   4.64259   4.64739   4.71510
  Beta virt. eigenvalues --    4.79743   6.10257   6.13458   6.15474   6.19690
  Beta virt. eigenvalues --    6.19738   6.25184   6.28503   6.36005   6.40826
  Beta virt. eigenvalues --    6.58954   6.63696   6.72253  23.27600  23.68193
  Beta virt. eigenvalues --   23.74501  23.88208  23.88602  24.02234  66.67615
  Beta virt. eigenvalues --   66.70523  66.72544  66.78063
          Condensed to atoms (all electrons):
               1          2          3          4          5          6
     1  C   10.361012  -0.904875   1.002365  -2.128624  -2.302381  -0.369002
     2  C   -0.904875  10.361012  -0.369002  -2.302381  -2.128624   1.002365
     3  C    1.002365  -0.369002  12.365536  -0.680378  -3.608904  -2.770010
     4  C   -2.128624  -2.302381  -0.680378  14.135999   0.196066  -3.608904
     5  C   -2.302381  -2.128624  -3.608904   0.196066  14.135999  -0.680378
     6  C   -0.369002   1.002365  -2.770010  -3.608904  -0.680378  12.365536
     7  H    0.523860  -0.093548   0.085103   0.004945  -0.036398  -0.184231
     8  H   -0.093548   0.523860  -0.184231  -0.036398   0.004945   0.085103
     9  F    0.030769  -0.296995   0.651355  -0.256864   0.001227  -0.023685
    10  F   -0.000208  -0.057334  -0.276370   0.679540  -0.228582  -0.033224
    11  F   -0.057334  -0.000208  -0.033224  -0.228582   0.679540  -0.276370
    12  F   -0.296995   0.030769  -0.023685   0.001227  -0.256864   0.651355
               7          8          9         10         11         12
     1  C    0.523860  -0.093548   0.030769  -0.000208  -0.057334  -0.296995
     2  C   -0.093548   0.523860  -0.296995  -0.057334  -0.000208   0.030769
     3  C    0.085103  -0.184231   0.651355  -0.276370  -0.033224  -0.023685
     4  C    0.004945  -0.036398  -0.256864   0.679540  -0.228582   0.001227
     5  C   -0.036398   0.004945   0.001227  -0.228582   0.679540  -0.256864
     6  C   -0.184231   0.085103  -0.023685  -0.033224  -0.276370   0.651355
     7  H    0.391340  -0.007242   0.002243   0.000156   0.000266  -0.024549
     8  H   -0.007242   0.391340  -0.024549   0.000266   0.000156   0.002243
     9  F    0.002243  -0.024549   8.946208   0.008554   0.000383   0.000128
    10  F    0.000156   0.000266   0.008554   9.000635   0.006219   0.000383
    11  F    0.000266   0.000156   0.000383   0.006219   9.000635   0.008554
    12  F   -0.024549   0.002243   0.000128   0.000383   0.008554   8.946208
          Atomic-Atomic Spin Densities.
               1          2          3          4          5          6
     1  C   -0.088484   0.082575  -0.120220   0.057708  -0.057390   0.168959
     2  C    0.082575  -0.088484   0.168959  -0.057390   0.057708  -0.120220
     3  C   -0.120220   0.168959   0.258424   0.100097  -0.062895   0.084552
     4  C    0.057708  -0.057390   0.100097  -0.055632   0.014144  -0.062895
     5  C   -0.057390   0.057708  -0.062895   0.014144  -0.055632   0.100097
     6  C    0.168959  -0.120220   0.084552  -0.062895   0.100097   0.258424
     7  H   -0.014328   0.010142  -0.006805   0.003715  -0.004933   0.012136
     8  H    0.010142  -0.014328   0.012136  -0.004933   0.003715  -0.006805
     9  F    0.003017  -0.004493  -0.055643   0.001205   0.000563  -0.002173
    10  F   -0.005471   0.007620  -0.008815   0.005981  -0.004318   0.004469
    11  F    0.007620  -0.005471   0.004469  -0.004318   0.005981  -0.008815
    12  F   -0.004493   0.003017  -0.002173   0.000563   0.001205  -0.055643
               7          8          9         10         11         12
     1  C   -0.014328   0.010142   0.003017  -0.005471   0.007620  -0.004493
     2  C    0.010142  -0.014328  -0.004493   0.007620  -0.005471   0.003017
     3  C   -0.006805   0.012136  -0.055643  -0.008815   0.004469  -0.002173
     4  C    0.003715  -0.004933   0.001205   0.005981  -0.004318   0.000563
     5  C   -0.004933   0.003715   0.000563  -0.004318   0.005981   0.001205
     6  C    0.012136  -0.006805  -0.002173   0.004469  -0.008815  -0.055643
     7  H   -0.006268   0.000715   0.000148  -0.000090   0.000196  -0.000354
     8  H    0.000715  -0.006268  -0.000354   0.000196  -0.000090   0.000148
     9  F    0.000148  -0.000354   0.137002   0.000949  -0.000024   0.000008
    10  F   -0.000090   0.000196   0.000949   0.015572  -0.000507  -0.000024
    11  F    0.000196  -0.000090  -0.000024  -0.000507   0.015572   0.000949
    12  F   -0.000354   0.000148   0.000008  -0.000024   0.000949   0.137002
 Mulliken charges and spin densities:
               1          2
     1  C    0.234960   0.039634
     2  C    0.234960   0.039634
     3  C   -0.158557   0.372084
     4  C    0.224354  -0.001756
     5  C    0.224354  -0.001756
     6  C   -0.158557   0.372084
     7  H    0.338053  -0.005727
     8  H    0.338053  -0.005727
     9  F   -0.038774   0.080204
    10  F   -0.100036   0.015561
    11  F   -0.100036   0.015561
    12  F   -0.038774   0.080204
 Sum of Mulliken charges =   1.00000   1.00000
 Mulliken charges and spin densities with hydrogens summed into heavy atoms:
               1          2
     1  C    0.573013   0.033907
     2  C    0.573013   0.033907
     3  C   -0.158557   0.372084
     4  C    0.224354  -0.001756
     5  C    0.224354  -0.001756
     6  C   -0.158557   0.372084
     9  F   -0.038774   0.080204
    10  F   -0.100036   0.015561
    11  F   -0.100036   0.015561
    12  F   -0.038774   0.080204
 Electronic spatial extent (au):  <R**2>=           1338.4937
 Charge=              1.0000 electrons
 Dipole moment (field-independent basis, Debye):
    X=              2.3377    Y=             -0.0000    Z=             -0.0000  Tot=              2.3377
 Quadrupole moment (field-independent basis, Debye-Ang):
   XX=            -42.0260   YY=            -43.9711   ZZ=            -49.7613
   XY=             -0.0000   XZ=             -0.0000   YZ=              0.0000
 Traceless Quadrupole moment (field-independent basis, Debye-Ang):
   XX=              3.2268   YY=              1.2817   ZZ=             -4.5085
   XY=             -0.0000   XZ=             -0.0000   YZ=              0.0000
 Octapole moment (field-independent basis, Debye-Ang**2):
  XXX=             80.3753  YYY=             -0.0000  ZZZ=              0.0000  XYY=             27.1407
  XXY=             -0.0000  XXZ=              0.0000  XZZ=             18.2030  YZZ=             -0.0000
  YYZ=             -0.0000  XYZ=             -0.0000
 Hexadecapole moment (field-independent basis, Debye-Ang**3):
 XXXX=           -528.4278 YYYY=           -735.6332 ZZZZ=            -42.8479 XXXY=             -0.0000
 XXXZ=             -0.0000 YYYX=             -0.0000 YYYZ=             -0.0000 ZZZX=             -0.0000
 ZZZY=             -0.0000 XXYY=           -204.5454 XXZZ=           -101.6120 YYZZ=           -127.4559
 XXYZ=             -0.0000 YYXZ=             -0.0000 ZZXY=              0.0000
 N-N= 5.260568167366D+02 E-N=-2.521332162187D+03  KE= 6.265742366738D+02
                          Isotropic Fermi Contact Couplings
        Atom                 a.u.       MegaHertz       Gauss      10(-4) cm-1
     1  C(13)             -0.00882      -9.91535      -3.53804      -3.30740
     2  C(13)             -0.00882      -9.91535      -3.53804      -3.30740
     3  C(13)              0.01629      18.31160       6.53404       6.10809
     4  C(13)             -0.01337     -15.02946      -5.36289      -5.01329
     5  C(13)             -0.01337     -15.02946      -5.36289      -5.01329
     6  C(13)              0.01629      18.31160       6.53404       6.10809
     7  H(1)              -0.00135      -6.02653      -2.15041      -2.01023
     8  H(1)              -0.00135      -6.02653      -2.15041      -2.01023
     9  F(19)              0.01842      77.51386      27.65887      25.85584
    10  F(19)              0.00177       7.45212       2.65910       2.48576
    11  F(19)              0.00177       7.45212       2.65910       2.48576
    12  F(19)              0.01842      77.51386      27.65887      25.85584
 --------------------------------------------------------
       Center         ----  Spin Dipole Couplings  ----
                      3XX-RR        3YY-RR        3ZZ-RR
 --------------------------------------------------------
     1   Atom       -0.034607     -0.042177      0.076784
     2   Atom       -0.034607     -0.042177      0.076784
     3   Atom       -0.233593     -0.229166      0.462759
     4   Atom       -0.007721     -0.021367      0.029089
     5   Atom       -0.007721     -0.021367      0.029089
     6   Atom       -0.233593     -0.229166      0.462759
     7   Atom        0.013354     -0.007319     -0.006034
     8   Atom        0.013354     -0.007319     -0.006034
     9   Atom       -0.372872     -0.400576      0.773448
    10   Atom       -0.058092     -0.066051      0.124143
    11   Atom       -0.058092     -0.066051      0.124143
    12   Atom       -0.372872     -0.400576      0.773448
 --------------------------------------------------------
                        XY            XZ            YZ
 --------------------------------------------------------
     1   Atom       -0.003339      0.000000     -0.000000
     2   Atom        0.003339     -0.000000     -0.000000
     3   Atom        0.001122      0.000000      0.000000
     4   Atom       -0.001933      0.000000     -0.000000
     5   Atom        0.001933     -0.000000     -0.000000
     6   Atom       -0.001122     -0.000000      0.000000
     7   Atom        0.004358      0.000000     -0.000000
     8   Atom       -0.004358     -0.000000     -0.000000
     9   Atom       -0.000296      0.000000      0.000000
    10   Atom        0.003216     -0.000000     -0.000000
    11   Atom       -0.003216      0.000000     -0.000000
    12   Atom        0.000296     -0.000000      0.000000
 --------------------------------------------------------


 ---------------------------------------------------------------------------------
              Anisotropic Spin Dipole Couplings in Principal Axis System
 ---------------------------------------------------------------------------------

       Atom             a.u.   MegaHertz   Gauss  10(-4) cm-1        Axes

              Baa    -0.0434    -5.829    -2.080    -1.944  0.3536  0.9354  0.0000
     1 C(13)  Bbb    -0.0333    -4.475    -1.597    -1.493  0.9354 -0.3536 -0.0000
              Bcc     0.0768    10.304     3.677     3.437  0.0000 -0.0000  1.0000
 
              Baa    -0.0434    -5.829    -2.080    -1.944 -0.3536  0.9354  0.0000
     2 C(13)  Bbb    -0.0333    -4.475    -1.597    -1.493  0.9354  0.3536  0.0000
              Bcc     0.0768    10.304     3.677     3.437 -0.0000 -0.0000  1.0000
 
              Baa    -0.2339   -31.382   -11.198   -10.468  0.9726 -0.2324 -0.0000
     3 C(13)  Bbb    -0.2289   -30.716   -10.960   -10.246  0.2324  0.9726 -0.0000
              Bcc     0.4628    62.098    22.158    20.714  0.0000  0.0000  1.0000
 
              Baa    -0.0216    -2.903    -1.036    -0.968  0.1376  0.9905  0.0000
     4 C(13)  Bbb    -0.0075    -1.000    -0.357    -0.334  0.9905 -0.1376 -0.0000
              Bcc     0.0291     3.903     1.393     1.302  0.0000 -0.0000  1.0000
 
              Baa    -0.0216    -2.903    -1.036    -0.968 -0.1376  0.9905  0.0000
     5 C(13)  Bbb    -0.0075    -1.000    -0.357    -0.334  0.9905  0.1376  0.0000
              Bcc     0.0291     3.903     1.393     1.302 -0.0000 -0.0000  1.0000
 
              Baa    -0.2339   -31.382   -11.198   -10.468  0.9726  0.2324 -0.0000
     6 C(13)  Bbb    -0.2289   -30.716   -10.960   -10.246 -0.2324  0.9726 -0.0000
              Bcc     0.4628    62.098    22.158    20.714 -0.0000  0.0000  1.0000
 
              Baa    -0.0082    -4.375    -1.561    -1.459 -0.1982  0.9802  0.0000
     7 H(1)   Bbb    -0.0060    -3.220    -1.149    -1.074 -0.0000 -0.0000  1.0000
              Bcc     0.0142     7.595     2.710     2.533  0.9802  0.1982  0.0000
 
              Baa    -0.0082    -4.375    -1.561    -1.459  0.1982  0.9802  0.0000
     8 H(1)   Bbb    -0.0060    -3.220    -1.149    -1.074 -0.0000 -0.0000  1.0000
              Bcc     0.0142     7.595     2.710     2.533  0.9802 -0.1982 -0.0000
 
              Baa    -0.4006  -201.181   -71.786   -67.107  0.0107  0.9999 -0.0000
     9 F(19)  Bbb    -0.3729  -187.264   -66.821   -62.465  0.9999 -0.0107 -0.0000
              Bcc     0.7734   388.445   138.607   129.571  0.0000  0.0000  1.0000
 
              Baa    -0.0672   -33.743   -12.040   -11.256 -0.3334  0.9428  0.0000
    10 F(19)  Bbb    -0.0570   -28.604   -10.207    -9.541  0.9428  0.3334  0.0000
              Bcc     0.1241    62.348    22.247    20.797 -0.0000 -0.0000  1.0000
 
              Baa    -0.0672   -33.743   -12.040   -11.256  0.3334  0.9428  0.0000
    11 F(19)  Bbb    -0.0570   -28.604   -10.207    -9.541  0.9428 -0.3334 -0.0000
              Bcc     0.1241    62.348    22.247    20.797  0.0000 -0.0000  1.0000
 
              Baa    -0.4006  -201.181   -71.786   -67.107 -0.0107  0.9999 -0.0000
    12 F(19)  Bbb    -0.3729  -187.264   -66.821   -62.465  0.9999  0.0107  0.0000
              Bcc     0.7734   388.445   138.607   129.571 -0.0000  0.0000  1.0000
 

 ---------------------------------------------------------------------------------

 No NMR shielding tensors so no spin-rotation constants.
 Leave Link  601 at Wed Jan 29 14:42:02 2025, MaxMem=   104857600 cpu:               0.1 elap:               0.2
 (Enter /sw/cluster/pub/apps//g16/l701.exe)
 ... and contract with generalized density number  0.
 Compute integral first derivatives.
 Leave Link  701 at Wed Jan 29 14:42:02 2025, MaxMem=   104857600 cpu:               0.1 elap:               0.1
 (Enter /sw/cluster/pub/apps//g16/l702.exe)
 L702 exits ... SP integral derivatives will be done elsewhere.
 Leave Link  702 at Wed Jan 29 14:42:02 2025, MaxMem=   104857600 cpu:               0.0 elap:               0.0
 (Enter /sw/cluster/pub/apps//g16/l703.exe)
 Integral derivatives from FoFJK, PRISM(SPDF).
 Compute integral first derivatives, UseDBF=F ICtDFT=           0.
 Calling FoFJK, ICntrl=      2127 FMM=F ISym2X=0 I1Cent= 0 IOpClX= 1 NMat=1 NMatS=1 NMatT=0.
 FoFJK:  IHMeth= 1 ICntrl=    2127 DoSepK=F KAlg= 0 I1Cent=           0 FoldK=F
 IRaf=         0 NMat=       1 IRICut=       1 DoRegI=T DoRafI=F ISym2E= 0 IDoP0=0 IntGTp=1.
 FoFCou: FMM=F IPFlag=           0 FMFlag=      100000 FMFlg1=         800
         NFxFlg=           0 DoJE=F BraDBF=F KetDBF=F FulRan=T
         wScrn=  0.000000 ICntrl=      2127 IOpCl=  1 I1Cent=           0 NGrid=           0
         NMat0=    1 NMatS0=      1 NMatT0=    0 NMatD0=    1 NMtDS0=    0 NMtDT0=    0
 Symmetry not used in FoFCou.
 Leave Link  703 at Wed Jan 29 14:42:22 2025, MaxMem=   104857600 cpu:              19.5 elap:              19.6
 (Enter /sw/cluster/pub/apps//g16/l716.exe)
 Dipole        = 9.19705418D-01-6.47393250D-12-5.80654427D-10
 -------------------------------------------------------------------
 Center     Atomic                   Forces (Hartrees/Bohr)
 Number     Number              X              Y              Z
 -------------------------------------------------------------------
      1        6           0.030976737   -0.033281834   -0.000000000
      2        6           0.030976737    0.033281834    0.000000000
      3        6          -0.005310773   -0.057164880    0.000000001
      4        6          -0.051709281    0.013088903   -0.000000001
      5        6          -0.051709281   -0.013088903    0.000000000
      6        6          -0.005310773    0.057164880   -0.000000001
      7        1           0.001453077    0.000165063    0.000000000
      8        1           0.001453077   -0.000165063   -0.000000000
      9        9           0.001337950    0.041837038   -0.000000001
     10        9           0.023252290    0.010999954    0.000000000
     11        9           0.023252290   -0.010999954   -0.000000000
     12        9           0.001337950   -0.041837038    0.000000000
 -------------------------------------------------------------------
 Cartesian Forces:  Max     0.057164880 RMS     0.024294913
 Leave Link  716 at Wed Jan 29 14:42:22 2025, MaxMem=   104857600 cpu:               0.0 elap:               0.0
 (Enter /sw/cluster/pub/apps//g16/l103.exe)

 GradGradGradGradGradGradGradGradGradGradGradGradGradGradGradGradGradGrad
 Berny optimization.
 FormGI is forming the generalized inverse of G from B-inverse, IUseBI=4.
 Internal  Forces:  Max     0.041854632 RMS     0.013541402
 Search for a local minimum.
 Step number   1 out of a maximum of   64
 All quantities printed in internal units (Hartrees-Bohrs-Radians)
 RMS Force = .13541D-01 SwitMx=.10000D-02 MixMth= 1
 Mixed Optimization -- RFO/linear search
 Second derivative matrix not updated -- first step.
 ITU=  0
     Eigenvalues ---    0.02243   0.02247   0.02249   0.02265   0.02270
     Eigenvalues ---    0.02283   0.02293   0.02301   0.02312   0.16000
     Eigenvalues ---    0.16000   0.22495   0.24490   0.25000   0.25000
     Eigenvalues ---    0.25000   0.25000   0.25000   0.35625   0.35625
     Eigenvalues ---    0.43438   0.43886   0.47492   0.47671   0.48337
     Eigenvalues ---    0.48709   0.58816   0.58816   0.60595   0.60595
 RFO step:  Lambda=-1.89125630D-02 EMin= 2.24330949D-02
 Linear search not attempted -- first point.
 Iteration  1 RMS(Cart)=  0.03351120 RMS(Int)=  0.00033630
 Iteration  2 RMS(Cart)=  0.00039280 RMS(Int)=  0.00000363
 Iteration  3 RMS(Cart)=  0.00000014 RMS(Int)=  0.00000363
 ITry= 1 IFail=0 DXMaxC= 1.05D-01 DCOld= 1.00D+10 DXMaxT= 3.00D-01 DXLimC= 3.00D+00 Rises=F
 Variable       Old X    -DE/DX   Delta X   Delta X   Delta X     New X
                                 (Linear)    (Quad)   (Total)
    R1        2.62631  -0.02501   0.00000  -0.05065  -0.05066   2.57565
    R2        2.61006   0.03219   0.00000   0.06347   0.06346   2.67352
    R3        2.04673   0.00133   0.00000   0.00354   0.00354   2.05026
    R4        2.61006   0.03219   0.00000   0.06347   0.06346   2.67352
    R5        2.04673   0.00133   0.00000   0.00354   0.00354   2.05026
    R6        2.62324   0.02832   0.00000   0.05711   0.05711   2.68035
    R7        2.51889  -0.04185   0.00000  -0.06894  -0.06894   2.44995
    R8        2.62235  -0.01686   0.00000  -0.03413  -0.03412   2.58823
    R9        2.50472  -0.02565   0.00000  -0.04104  -0.04104   2.46368
   R10        2.62324   0.02832   0.00000   0.05711   0.05711   2.68035
   R11        2.50472  -0.02565   0.00000  -0.04104  -0.04104   2.46368
   R12        2.51889  -0.04185   0.00000  -0.06894  -0.06894   2.44995
    A1        2.08825  -0.00462   0.00000  -0.01816  -0.01817   2.07008
    A2        2.11676   0.00168   0.00000   0.00557   0.00557   2.12233
    A3        2.07818   0.00294   0.00000   0.01259   0.01259   2.09077
    A4        2.08825  -0.00462   0.00000  -0.01816  -0.01817   2.07008
    A5        2.11676   0.00168   0.00000   0.00557   0.00557   2.12233
    A6        2.07818   0.00294   0.00000   0.01259   0.01259   2.09077
    A7        2.10868   0.01014   0.00000   0.03840   0.03840   2.14708
    A8        2.10675  -0.00578   0.00000  -0.02184  -0.02184   2.08491
    A9        2.06775  -0.00436   0.00000  -0.01656  -0.01656   2.05119
   A10        2.08626  -0.00552   0.00000  -0.02024  -0.02023   2.06603
   A11        2.10729   0.00028   0.00000   0.00091   0.00090   2.10819
   A12        2.08964   0.00524   0.00000   0.01933   0.01933   2.10897
   A13        2.08626  -0.00552   0.00000  -0.02024  -0.02023   2.06603
   A14        2.08964   0.00524   0.00000   0.01933   0.01933   2.10897
   A15        2.10729   0.00028   0.00000   0.00091   0.00090   2.10819
   A16        2.10868   0.01014   0.00000   0.03840   0.03840   2.14708
   A17        2.10675  -0.00578   0.00000  -0.02184  -0.02184   2.08491
   A18        2.06775  -0.00436   0.00000  -0.01656  -0.01656   2.05119
    D1        0.00000  -0.00000   0.00000  -0.00000  -0.00000   0.00000
    D2        3.14159  -0.00000   0.00000  -0.00000   0.00000   3.14159
    D3        3.14159  -0.00000   0.00000  -0.00000   0.00000   3.14159
    D4        0.00000  -0.00000   0.00000  -0.00000  -0.00000   0.00000
    D5       -0.00000   0.00000   0.00000   0.00000   0.00000   0.00000
    D6        3.14159  -0.00000   0.00000  -0.00000   0.00000   3.14159
    D7        3.14159   0.00000   0.00000   0.00000   0.00000   3.14159
    D8        0.00000  -0.00000   0.00000  -0.00000   0.00000   0.00000
    D9       -0.00000   0.00000   0.00000   0.00000   0.00000   0.00000
   D10        3.14159  -0.00000   0.00000  -0.00000   0.00000   3.14159
   D11        3.14159   0.00000   0.00000   0.00000   0.00000   3.14159
   D12        0.00000  -0.00000   0.00000  -0.00000   0.00000   0.00000
   D13        0.00000  -0.00000   0.00000  -0.00000  -0.00000   0.00000
   D14        3.14159   0.00000   0.00000  -0.00000   0.00000   3.14159
   D15        3.14159   0.00000   0.00000   0.00000   0.00000   3.14159
   D16       -0.00000   0.00000   0.00000   0.00000   0.00000   0.00000
   D17       -0.00000   0.00000   0.00000   0.00000   0.00000   0.00000
   D18        3.14159   0.00000   0.00000   0.00000   0.00000   3.14159
   D19        3.14159   0.00000   0.00000   0.00000   0.00000   3.14159
   D20        0.00000  -0.00000   0.00000  -0.00000   0.00000   0.00000
   D21        0.00000  -0.00000   0.00000  -0.00000   0.00000   0.00000
   D22        3.14159   0.00000   0.00000   0.00000   0.00000   3.14159
   D23        3.14159  -0.00000   0.00000  -0.00000   0.00000   3.14159
   D24       -0.00000   0.00000   0.00000   0.00000   0.00000   0.00000
         Item               Value     Threshold  Converged?
 Maximum Force            0.041855     0.000450     NO 
 RMS     Force            0.013541     0.000300     NO 
 Maximum Displacement     0.105142     0.001800     NO 
 RMS     Displacement     0.033738     0.001200     NO 
 Predicted change in Energy=-9.818156D-03
 Lowest energy point so far.  Saving SCF results.
 GradGradGradGradGradGradGradGradGradGradGradGradGradGradGradGradGradGrad

 Leave Link  103 at Wed Jan 29 14:42:22 2025, MaxMem=   104857600 cpu:               0.0 elap:               0.0
 (Enter /sw/cluster/pub/apps//g16/l202.exe)
                          Input orientation:                          
 ---------------------------------------------------------------------
 Center     Atomic      Atomic             Coordinates (Angstroms)
 Number     Number       Type             X           Y           Z
 ---------------------------------------------------------------------
      1          6           0        1.236952    0.681489   -0.000000
      2          6           0        1.236952   -0.681489   -0.000000
      3          6           0       -0.005109   -1.358876   -0.000000
      4          6           0       -1.253083   -0.684816   -0.000000
      5          6           0       -1.253083    0.684816   -0.000000
      6          6           0       -0.005109    1.358876   -0.000000
      7          1           0        2.161031    1.249997    0.000000
      8          1           0        2.161031   -1.249997   -0.000000
      9          9           0       -0.024338   -2.655191    0.000000
     10          9           0       -2.372519   -1.353062   -0.000000
     11          9           0       -2.372519    1.353062    0.000000
     12          9           0       -0.024338    2.655191    0.000000
 ---------------------------------------------------------------------
                    Distance matrix (angstroms):
                    1          2          3          4          5
     1  C    0.000000
     2  C    1.362977   0.000000
     3  C    2.388682   1.414768   0.000000
     4  C    2.840258   2.490037   1.418378   0.000000
     5  C    2.490037   2.840258   2.394602   1.369632   0.000000
     6  C    1.414768   2.388682   2.717752   2.394602   1.418378
     7  H    1.084953   2.141158   3.390926   3.924242   3.460578
     8  H    2.141158   1.084953   2.168874   3.460578   3.924242
     9  F    3.567111   2.342297   1.296458   2.322109   3.558857
    10  F    4.143390   3.671416   2.367418   1.303722   2.325099
    11  F    3.671416   4.143390   3.599895   2.325099   1.303722
    12  F    2.342297   3.567111   4.014113   3.558857   2.322109
                    6          7          8          9         10
     6  C    0.000000
     7  H    2.168874   0.000000
     8  H    3.390926   2.499994   0.000000
     9  F    4.014113   4.475079   2.598154   0.000000
    10  F    3.599895   5.227714   4.534722   2.685051   0.000000
    11  F    2.367418   4.534722   5.227714   4.645433   2.706124
    12  F    1.296458   2.598154   4.475079   5.310382   4.645433
                   11         12
    11  F    0.000000
    12  F    2.685051   0.000000
 Symmetry turned off by external request.
 Stoichiometry    C6H2F4(1+,2)
 Framework group  C2[X(C6H2F4)]
 Deg. of freedom    16
 Full point group                 C2      NOp   2
 Rotational constants (GHZ):           2.0460628           1.2407700           0.7723829
 Leave Link  202 at Wed Jan 29 14:42:22 2025, MaxMem=   104857600 cpu:               0.0 elap:               0.0
 (Enter /sw/cluster/pub/apps//g16/l301.exe)
 Standard basis: 6-311++G(d,p) (5D, 7F)
 Ernie: Thresh=  0.10000D-02 Tol=  0.10000D-05 Strict=F.
   234 basis functions,   378 primitive gaussians,   244 cartesian basis functions
    37 alpha electrons       36 beta electrons
       nuclear repulsion energy       527.7650512794 Hartrees.
 IExCor= 1009 DFT=T Ex+Corr=PBE1PBE ExCW=0 ScaHFX=  0.250000
 ScaDFX=  0.750000  0.750000  1.000000  1.000000 ScalE2=  1.000000  1.000000
 IRadAn=      5 IRanWt=     -1 IRanGd=            0 ICorTp=0 IEmpDi=  4
 NAtoms=   12 NActive=   12 NUniq=   12 SFac= 1.00D+00 NAtFMM=   60 NAOKFM=F Big=F
 Integral buffers will be    131072 words long.
 Raffenetti 2 integral format.
 Two-electron integral symmetry is turned off.
 Leave Link  301 at Wed Jan 29 14:42:22 2025, MaxMem=   104857600 cpu:               0.0 elap:               0.0
 (Enter /sw/cluster/pub/apps//g16/l302.exe)
 NPDir=0 NMtPBC=     1 NCelOv=     1 NCel=       1 NClECP=     1 NCelD=      1
         NCelK=      1 NCelE2=     1 NClLst=     1 CellRange=     0.0.
 One-electron integrals computed using PRISM.
 NBasis=   234 RedAO= T EigKep=  2.01D-06  NBF=   234
 NBsUse=   234 1.00D-06 EigRej= -1.00D+00 NBFU=   234
 Precomputing XC quadrature grid using
 IXCGrd= 4 IRadAn=           5 IRanWt=          -1 IRanGd=           0 AccXCQ= 0.00D+00.
 Generated NRdTot=       0 NPtTot=           0 NUsed=           0 NTot=          32
 NSgBfM=   244   244   244   244   244 MxSgAt=    12 MxSgA2=    12.
 Leave Link  302 at Wed Jan 29 14:42:22 2025, MaxMem=   104857600 cpu:               0.2 elap:               0.2
 (Enter /sw/cluster/pub/apps//g16/l303.exe)
 DipDrv:  MaxL=1.
 Leave Link  303 at Wed Jan 29 14:42:22 2025, MaxMem=   104857600 cpu:               0.0 elap:               0.0
 (Enter /sw/cluster/pub/apps//g16/l401.exe)
 Initial guess from the checkpoint file:  "1-2-3-4-TtFB-CAT.chk"
 B after Tr=    -0.011066   -0.000000    0.000000
         Rot=    1.000000    0.000000    0.000000    0.000000 Ang=   0.00 deg.
 Guess basis will be translated and rotated to current coordinates.
 JPrj=2 DoOrth=T DoCkMO=T.
 Initial guess <Sx>= 0.0000 <Sy>= 0.0000 <Sz>= 0.5000 <S**2>= 0.7622 S= 0.5061
 Generating alternative initial guess.
 ExpMin= 3.60D-02 ExpMax= 1.14D+04 ExpMxC= 1.72D+03 IAcc=3 IRadAn=         5 AccDes= 0.00D+00
 Harris functional with IExCor= 1009 and IRadAn=       5 diagonalized for initial guess.
 HarFok:  IExCor= 1009 AccDes= 0.00D+00 IRadAn=         5 IDoV= 1 UseB2=F ITyADJ=14
 ICtDFT=  3500011 ScaDFX=  1.000000  1.000000  1.000000  1.000000
 FoFCou: FMM=F IPFlag=           0 FMFlag=      100000 FMFlg1=           0
         NFxFlg=           0 DoJE=T BraDBF=F KetDBF=T FulRan=T
         wScrn=  0.000000 ICntrl=       500 IOpCl=  0 I1Cent=   200000004 NGrid=           0
         NMat0=    1 NMatS0=      1 NMatT0=    0 NMatD0=    1 NMtDS0=    0 NMtDT0=    0
 Symmetry not used in FoFCou.
 Harris En= -628.455792733833    
 Leave Link  401 at Wed Jan 29 14:42:24 2025, MaxMem=   104857600 cpu:               1.7 elap:               1.7
 (Enter /sw/cluster/pub/apps//g16/l502.exe)
 Two-electron integral symmetry not used.
 UHF open shell SCF:
 Using DIIS extrapolation, IDIIS=  1040.
 NGot=   104857600 LenX=   104735324 LenY=   104675347
 Requested convergence on RMS density matrix=1.00D-08 within 128 cycles.
 Requested convergence on MAX density matrix=1.00D-06.
 Requested convergence on             energy=1.00D-06.
 No special actions if energy rises.
 Fock matrices will be formed incrementally for  20 cycles.

 Cycle   1  Pass 1  IDiag  1:
 FoFJK:  IHMeth= 1 ICntrl=       0 DoSepK=F KAlg= 0 I1Cent=           0 FoldK=F
 IRaf= 930000000 NMat=       1 IRICut=       1 DoRegI=T DoRafI=F ISym2E= 0 IDoP0=0 IntGTp=1.
 FoFCou: FMM=F IPFlag=           0 FMFlag=      100000 FMFlg1=           0
         NFxFlg=           0 DoJE=F BraDBF=F KetDBF=F FulRan=T
         wScrn=  0.000000 ICntrl=         0 IOpCl=  1 I1Cent=           0 NGrid=           0
         NMat0=    1 NMatS0=      1 NMatT0=    0 NMatD0=    1 NMtDS0=    0 NMtDT0=    0
 Symmetry not used in FoFCou.
 E= -628.355989119647    
 DIIS: error= 5.50D-03 at cycle   1 NSaved=   1.
 NSaved= 1 IEnMin= 1 EnMin= -628.355989119647     IErMin= 1 ErrMin= 5.50D-03
 ErrMax= 5.50D-03  0.00D+00 EMaxC= 1.00D-01 BMatC= 3.02D-02 BMatP= 3.02D-02
 IDIUse=3 WtCom= 9.45D-01 WtEn= 5.50D-02
 Coeff-Com:  0.100D+01
 Coeff-En:   0.100D+01
 Coeff:      0.100D+01
 Gap=     0.485 Goal=   None    Shift=    0.000
 Gap=     0.481 Goal=   None    Shift=    0.000
 GapD=    0.481 DampG=2.000 DampE=1.000 DampFc=2.0000 IDamp=-1.
 RMSDP=6.44D-03 MaxDP=2.61D-01              OVMax= 6.11D-02

 Cycle   2  Pass 1  IDiag  1:
 RMSU=  3.32D-03    CP:  9.03D-01
 E= -628.366201849462     Delta-E=       -0.010212729814 Rises=F Damp=F
 DIIS: error= 3.07D-03 at cycle   2 NSaved=   2.
 NSaved= 2 IEnMin= 2 EnMin= -628.366201849462     IErMin= 2 ErrMin= 3.07D-03
 ErrMax= 3.07D-03  0.00D+00 EMaxC= 1.00D-01 BMatC= 6.39D-03 BMatP= 3.02D-02
 IDIUse=3 WtCom= 9.69D-01 WtEn= 3.07D-02
 Coeff-Com:  0.212D+00 0.788D+00
 Coeff-En:   0.000D+00 0.100D+01
 Coeff:      0.205D+00 0.795D+00
 Gap=     0.245 Goal=   None    Shift=    0.000
 Gap=     0.090 Goal=   None    Shift=    0.000
 RMSDP=6.10D-04 MaxDP=1.83D-02 DE=-1.02D-02 OVMax= 1.67D-02

 Cycle   3  Pass 1  IDiag  1:
 RMSU=  6.08D-04    CP:  9.02D-01  9.99D-01
 E= -628.366288616842     Delta-E=       -0.000086767380 Rises=F Damp=F
 DIIS: error= 3.35D-03 at cycle   3 NSaved=   3.
 NSaved= 3 IEnMin= 3 EnMin= -628.366288616842     IErMin= 2 ErrMin= 3.07D-03
 ErrMax= 3.35D-03  0.00D+00 EMaxC= 1.00D-01 BMatC= 6.33D-03 BMatP= 6.39D-03
 IDIUse=3 WtCom= 9.67D-01 WtEn= 3.35D-02
 Coeff-Com: -0.149D-01 0.503D+00 0.512D+00
 Coeff-En:   0.000D+00 0.482D+00 0.518D+00
 Coeff:     -0.144D-01 0.502D+00 0.513D+00
 Gap=     0.242 Goal=   None    Shift=    0.000
 Gap=     0.094 Goal=   None    Shift=    0.000
 RMSDP=5.91D-04 MaxDP=1.93D-02 DE=-8.68D-05 OVMax= 8.95D-03

 Cycle   4  Pass 1  IDiag  1:
 RMSU=  1.75D-04    CP:  8.95D-01  1.06D+00  5.18D-01
 E= -628.367285984517     Delta-E=       -0.000997367676 Rises=F Damp=F
 DIIS: error= 3.39D-04 at cycle   4 NSaved=   4.
 NSaved= 4 IEnMin= 4 EnMin= -628.367285984517     IErMin= 4 ErrMin= 3.39D-04
 ErrMax= 3.39D-04  0.00D+00 EMaxC= 1.00D-01 BMatC= 6.25D-05 BMatP= 6.33D-03
 IDIUse=3 WtCom= 9.97D-01 WtEn= 3.39D-03
 Coeff-Com: -0.101D-01 0.151D+00 0.179D+00 0.680D+00
 Coeff-En:   0.000D+00 0.000D+00 0.000D+00 0.100D+01
 Coeff:     -0.100D-01 0.150D+00 0.179D+00 0.681D+00
 Gap=     0.242 Goal=   None    Shift=    0.000
 Gap=     0.095 Goal=   None    Shift=    0.000
 RMSDP=1.61D-04 MaxDP=4.98D-03 DE=-9.97D-04 OVMax= 1.21D-03

 Cycle   5  Pass 1  IDiag  1:
 RMSU=  7.69D-05    CP:  8.97D-01  1.04D+00  5.63D-01  7.08D-01
 E= -628.367293495852     Delta-E=       -0.000007511334 Rises=F Damp=F
 DIIS: error= 1.75D-04 at cycle   5 NSaved=   5.
 NSaved= 5 IEnMin= 5 EnMin= -628.367293495852     IErMin= 5 ErrMin= 1.75D-04
 ErrMax= 1.75D-04  0.00D+00 EMaxC= 1.00D-01 BMatC= 2.23D-05 BMatP= 6.25D-05
 IDIUse=3 WtCom= 9.98D-01 WtEn= 1.75D-03
 Coeff-Com: -0.450D-02 0.425D-01 0.560D-01 0.394D+00 0.512D+00
 Coeff-En:   0.000D+00 0.000D+00 0.000D+00 0.260D+00 0.740D+00
 Coeff:     -0.449D-02 0.424D-01 0.559D-01 0.394D+00 0.512D+00
 Gap=     0.242 Goal=   None    Shift=    0.000
 Gap=     0.095 Goal=   None    Shift=    0.000
 RMSDP=2.62D-05 MaxDP=1.01D-03 DE=-7.51D-06 OVMax= 6.86D-04

 Cycle   6  Pass 1  IDiag  1:
 RMSU=  1.60D-05    CP:  8.97D-01  1.04D+00  5.55D-01  7.62D-01  9.13D-01
 E= -628.367297739727     Delta-E=       -0.000004243875 Rises=F Damp=F
 DIIS: error= 4.69D-05 at cycle   6 NSaved=   6.
 NSaved= 6 IEnMin= 6 EnMin= -628.367297739727     IErMin= 6 ErrMin= 4.69D-05
 ErrMax= 4.69D-05  0.00D+00 EMaxC= 1.00D-01 BMatC= 9.48D-07 BMatP= 2.23D-05
 IDIUse=1 WtCom= 1.00D+00 WtEn= 0.00D+00
 Coeff-Com: -0.821D-03 0.328D-02 0.568D-02 0.107D+00 0.221D+00 0.664D+00
 Coeff:     -0.821D-03 0.328D-02 0.568D-02 0.107D+00 0.221D+00 0.664D+00
 Gap=     0.242 Goal=   None    Shift=    0.000
 Gap=     0.095 Goal=   None    Shift=    0.000
 RMSDP=7.46D-06 MaxDP=2.68D-04 DE=-4.24D-06 OVMax= 1.54D-04

 Cycle   7  Pass 1  IDiag  1:
 RMSU=  4.78D-06    CP:  8.96D-01  1.04D+00  5.48D-01  7.66D-01  9.54D-01
                    CP:  1.12D+00
 E= -628.367297894111     Delta-E=       -0.000000154384 Rises=F Damp=F
 DIIS: error= 2.53D-05 at cycle   7 NSaved=   7.
 NSaved= 7 IEnMin= 7 EnMin= -628.367297894111     IErMin= 7 ErrMin= 2.53D-05
 ErrMax= 2.53D-05  0.00D+00 EMaxC= 1.00D-01 BMatC= 2.03D-07 BMatP= 9.48D-07
 IDIUse=1 WtCom= 1.00D+00 WtEn= 0.00D+00
 Coeff-Com:  0.325D-03-0.546D-02-0.665D-02-0.106D-01 0.372D-01 0.350D+00
 Coeff-Com:  0.635D+00
 Coeff:      0.325D-03-0.546D-02-0.665D-02-0.106D-01 0.372D-01 0.350D+00
 Coeff:      0.635D+00
 Gap=     0.242 Goal=   None    Shift=    0.000
 Gap=     0.095 Goal=   None    Shift=    0.000
 RMSDP=3.06D-06 MaxDP=1.48D-04 DE=-1.54D-07 OVMax= 1.31D-04

 Cycle   8  Pass 1  IDiag  1:
 RMSU=  1.89D-06    CP:  8.96D-01  1.04D+00  5.49D-01  7.71D-01  9.51D-01
                    CP:  1.11D+00  8.73D-01
 E= -628.367297946832     Delta-E=       -0.000000052721 Rises=F Damp=F
 DIIS: error= 6.86D-06 at cycle   8 NSaved=   8.
 NSaved= 8 IEnMin= 8 EnMin= -628.367297946832     IErMin= 8 ErrMin= 6.86D-06
 ErrMax= 6.86D-06  0.00D+00 EMaxC= 1.00D-01 BMatC= 1.50D-08 BMatP= 2.03D-07
 IDIUse=1 WtCom= 1.00D+00 WtEn= 0.00D+00
 Coeff-Com:  0.171D-03-0.134D-02-0.191D-02-0.210D-01-0.290D-01-0.788D-01
 Coeff-Com:  0.991D-01 0.103D+01
 Coeff:      0.171D-03-0.134D-02-0.191D-02-0.210D-01-0.290D-01-0.788D-01
 Coeff:      0.991D-01 0.103D+01
 Gap=     0.242 Goal=   None    Shift=    0.000
 Gap=     0.095 Goal=   None    Shift=    0.000
 RMSDP=1.91D-06 MaxDP=9.03D-05 DE=-5.27D-08 OVMax= 7.16D-05

 Cycle   9  Pass 1  IDiag  1:
 RMSU=  7.19D-07    CP:  8.96D-01  1.04D+00  5.48D-01  7.69D-01  9.59D-01
                    CP:  1.13D+00  1.04D+00  1.30D+00
 E= -628.367297954959     Delta-E=       -0.000000008126 Rises=F Damp=F
 DIIS: error= 3.23D-06 at cycle   9 NSaved=   9.
 NSaved= 9 IEnMin= 9 EnMin= -628.367297954959     IErMin= 9 ErrMin= 3.23D-06
 ErrMax= 3.23D-06  0.00D+00 EMaxC= 1.00D-01 BMatC= 3.48D-09 BMatP= 1.50D-08
 IDIUse=1 WtCom= 1.00D+00 WtEn= 0.00D+00
 Coeff-Com:  0.237D-04 0.285D-03 0.140D-03-0.767D-02-0.173D-01-0.821D-01
 Coeff-Com: -0.446D-01 0.453D+00 0.699D+00
 Coeff:      0.237D-04 0.285D-03 0.140D-03-0.767D-02-0.173D-01-0.821D-01
 Coeff:     -0.446D-01 0.453D+00 0.699D+00
 Gap=     0.242 Goal=   None    Shift=    0.000
 Gap=     0.095 Goal=   None    Shift=    0.000
 RMSDP=3.96D-07 MaxDP=1.59D-05 DE=-8.13D-09 OVMax= 2.42D-05

 Cycle  10  Pass 1  IDiag  1:
 RMSU=  2.28D-07    CP:  8.96D-01  1.04D+00  5.48D-01  7.69D-01  9.59D-01
                    CP:  1.13D+00  1.04D+00  1.45D+00  1.13D+00
 E= -628.367297956110     Delta-E=       -0.000000001151 Rises=F Damp=F
 DIIS: error= 1.40D-06 at cycle  10 NSaved=  10.
 NSaved=10 IEnMin=10 EnMin= -628.367297956110     IErMin=10 ErrMin= 1.40D-06
 ErrMax= 1.40D-06  0.00D+00 EMaxC= 1.00D-01 BMatC= 8.21D-10 BMatP= 3.48D-09
 IDIUse=1 WtCom= 1.00D+00 WtEn= 0.00D+00
 Coeff-Com: -0.207D-04 0.497D-03 0.523D-03 0.551D-03-0.287D-02-0.303D-01
 Coeff-Com: -0.428D-01 0.491D-01 0.377D+00 0.649D+00
 Coeff:     -0.207D-04 0.497D-03 0.523D-03 0.551D-03-0.287D-02-0.303D-01
 Coeff:     -0.428D-01 0.491D-01 0.377D+00 0.649D+00
 Gap=     0.242 Goal=   None    Shift=    0.000
 Gap=     0.095 Goal=   None    Shift=    0.000
 RMSDP=2.54D-07 MaxDP=8.36D-06 DE=-1.15D-09 OVMax= 9.65D-06

 Cycle  11  Pass 1  IDiag  1:
 RMSU=  1.21D-07    CP:  8.96D-01  1.04D+00  5.48D-01  7.69D-01  9.58D-01
                    CP:  1.13D+00  1.05D+00  1.49D+00  1.18D+00  8.79D-01
 E= -628.367297956339     Delta-E=       -0.000000000229 Rises=F Damp=F
 DIIS: error= 3.18D-07 at cycle  11 NSaved=  11.
 NSaved=11 IEnMin=11 EnMin= -628.367297956339     IErMin=11 ErrMin= 3.18D-07
 ErrMax= 3.18D-07  0.00D+00 EMaxC= 1.00D-01 BMatC= 2.79D-11 BMatP= 8.21D-10
 IDIUse=1 WtCom= 1.00D+00 WtEn= 0.00D+00
 Coeff-Com: -0.778D-05 0.108D-03 0.123D-03 0.652D-03 0.556D-03-0.235D-02
 Coeff-Com: -0.646D-02-0.247D-01 0.528D-01 0.179D+00 0.800D+00
 Coeff:     -0.778D-05 0.108D-03 0.123D-03 0.652D-03 0.556D-03-0.235D-02
 Coeff:     -0.646D-02-0.247D-01 0.528D-01 0.179D+00 0.800D+00
 Gap=     0.242 Goal=   None    Shift=    0.000
 Gap=     0.095 Goal=   None    Shift=    0.000
 RMSDP=3.94D-08 MaxDP=1.30D-06 DE=-2.29D-10 OVMax= 1.87D-06

 Cycle  12  Pass 1  IDiag  1:
 RMSU=  2.56D-08    CP:  8.96D-01  1.04D+00  5.48D-01  7.69D-01  9.59D-01
                    CP:  1.13D+00  1.05D+00  1.50D+00  1.20D+00  9.17D-01
                    CP:  9.58D-01
 E= -628.367297956346     Delta-E=       -0.000000000006 Rises=F Damp=F
 DIIS: error= 7.09D-08 at cycle  12 NSaved=  12.
 NSaved=12 IEnMin=12 EnMin= -628.367297956346     IErMin=12 ErrMin= 7.09D-08
 ErrMax= 7.09D-08  0.00D+00 EMaxC= 1.00D-01 BMatC= 2.65D-12 BMatP= 2.79D-11
 IDIUse=1 WtCom= 1.00D+00 WtEn= 0.00D+00
 Coeff-Com:  0.104D-05-0.412D-04-0.415D-04 0.869D-04 0.441D-03 0.347D-02
 Coeff-Com:  0.399D-02-0.115D-01-0.354D-01-0.429D-01 0.175D+00 0.907D+00
 Coeff:      0.104D-05-0.412D-04-0.415D-04 0.869D-04 0.441D-03 0.347D-02
 Coeff:      0.399D-02-0.115D-01-0.354D-01-0.429D-01 0.175D+00 0.907D+00
 Gap=     0.242 Goal=   None    Shift=    0.000
 Gap=     0.095 Goal=   None    Shift=    0.000
 RMSDP=1.36D-08 MaxDP=6.18D-07 DE=-6.37D-12 OVMax= 5.71D-07

 Cycle  13  Pass 1  IDiag  1:
 RMSU=  8.46D-09    CP:  8.96D-01  1.04D+00  5.48D-01  7.69D-01  9.59D-01
                    CP:  1.13D+00  1.05D+00  1.50D+00  1.21D+00  9.32D-01
                    CP:  9.84D-01  1.07D+00
 E= -628.367297956348     Delta-E=       -0.000000000003 Rises=F Damp=F
 DIIS: error= 1.31D-08 at cycle  13 NSaved=  13.
 NSaved=13 IEnMin=13 EnMin= -628.367297956348     IErMin=13 ErrMin= 1.31D-08
 ErrMax= 1.31D-08  0.00D+00 EMaxC= 1.00D-01 BMatC= 9.92D-14 BMatP= 2.65D-12
 IDIUse=1 WtCom= 1.00D+00 WtEn= 0.00D+00
 Coeff-Com:  0.499D-06-0.722D-05-0.726D-05-0.422D-04-0.435D-04 0.169D-03
 Coeff-Com:  0.229D-03 0.200D-02-0.322D-02-0.832D-02-0.591D-01-0.484D-01
 Coeff-Com:  0.112D+01
 Coeff:      0.499D-06-0.722D-05-0.726D-05-0.422D-04-0.435D-04 0.169D-03
 Coeff:      0.229D-03 0.200D-02-0.322D-02-0.832D-02-0.591D-01-0.484D-01
 Coeff:      0.112D+01
 Gap=     0.242 Goal=   None    Shift=    0.000
 Gap=     0.095 Goal=   None    Shift=    0.000
 RMSDP=3.12D-09 MaxDP=1.03D-07 DE=-2.73D-12 OVMax= 1.32D-07

 SCF Done:  E(UPBE1PBE) =  -628.367297956     A.U. after   13 cycles
            NFock= 13  Conv=0.31D-08     -V/T= 2.0027
 <Sx>= 0.0000 <Sy>= 0.0000 <Sz>= 0.5000 <S**2>= 0.7632 S= 0.5066
 <L.S>=  0.00000000000    
 KE= 6.266721141957D+02 PE=-2.524810119862D+03 EE= 7.420056564307D+02
 Annihilation of the first spin contaminant:
 S**2 before annihilation     0.7632,   after     0.7500
[...]
   R10        2.69243   0.00003   0.00000   0.00015   0.00015   2.69258
   R11        2.45032  -0.00003   0.00000  -0.00007  -0.00007   2.45025
   R12        2.42973   0.00002   0.00000   0.00008   0.00008   2.42981
    A1        2.07264  -0.00002   0.00000  -0.00011  -0.00011   2.07253
    A2        2.14228  -0.00001   0.00000  -0.00011  -0.00011   2.14217
    A3        2.06827   0.00002   0.00000   0.00022   0.00022   2.06849
    A4        2.07264  -0.00002   0.00000  -0.00011  -0.00011   2.07253
    A5        2.14228  -0.00001   0.00000  -0.00011  -0.00011   2.14217
    A6        2.06827   0.00002   0.00000   0.00022   0.00022   2.06849
    A7        2.14375   0.00004   0.00000   0.00025   0.00025   2.14399
    A8        2.08972  -0.00001   0.00000  -0.00003  -0.00003   2.08969
    A9        2.04972  -0.00003   0.00000  -0.00021  -0.00021   2.04950
   A10        2.06680  -0.00002   0.00000  -0.00014  -0.00014   2.06667
   A11        2.08452  -0.00001   0.00000  -0.00013  -0.00013   2.08439
   A12        2.13187   0.00003   0.00000   0.00026   0.00026   2.13213
   A13        2.06680  -0.00002   0.00000  -0.00014  -0.00014   2.06667
   A14        2.13187   0.00003   0.00000   0.00026   0.00026   2.13213
   A15        2.08452  -0.00001   0.00000  -0.00013  -0.00013   2.08439
   A16        2.14375   0.00004   0.00000   0.00025   0.00025   2.14399
   A17        2.08972  -0.00001   0.00000  -0.00003  -0.00003   2.08969
   A18        2.04972  -0.00003   0.00000  -0.00021  -0.00021   2.04950
    D1        0.00000  -0.00000   0.00000  -0.00000  -0.00000   0.00000
    D2        3.14159  -0.00000   0.00000   0.00000   0.00000   3.14159
    D3        3.14159  -0.00000   0.00000  -0.00000   0.00000   3.14159
    D4       -0.00000   0.00000   0.00000   0.00000   0.00000   0.00000
    D5       -0.00000   0.00000   0.00000   0.00000   0.00000   0.00000
    D6       -3.14159  -0.00000   0.00000  -0.00000  -0.00000   3.14159
    D7        3.14159   0.00000   0.00000   0.00000   0.00000   3.14159
    D8        0.00000  -0.00000   0.00000  -0.00000  -0.00000   0.00000
    D9       -0.00000   0.00000   0.00000   0.00000   0.00000   0.00000
   D10        3.14159   0.00000   0.00000   0.00000   0.00000   3.14159
   D11        3.14159  -0.00000   0.00000  -0.00000   0.00000   3.14159
   D12        0.00000  -0.00000   0.00000  -0.00000  -0.00000   0.00000
   D13        0.00000  -0.00000   0.00000  -0.00000  -0.00000   0.00000
   D14        3.14159  -0.00000   0.00000  -0.00000   0.00000   3.14159
   D15        3.14159   0.00000   0.00000  -0.00000   0.00000   3.14159
   D16       -0.00000   0.00000   0.00000   0.00000   0.00000   0.00000
   D17       -0.00000   0.00000   0.00000   0.00000   0.00000   0.00000
   D18        3.14159   0.00000   0.00000   0.00000   0.00000   3.14159
   D19        3.14159  -0.00000   0.00000  -0.00000   0.00000   3.14159
   D20       -0.00000   0.00000   0.00000   0.00000   0.00000   0.00000
   D21        0.00000  -0.00000   0.00000  -0.00000  -0.00000   0.00000
   D22        3.14159   0.00000   0.00000   0.00000   0.00000   3.14159
   D23       -3.14159  -0.00000   0.00000  -0.00000  -0.00000   3.14159
   D24       -0.00000   0.00000   0.00000   0.00000   0.00000   0.00000
         Item               Value     Threshold  Converged?
 Maximum Force            0.000068     0.000450     YES
 RMS     Force            0.000022     0.000300     YES
 Maximum Displacement     0.000468     0.001800     YES
 RMS     Displacement     0.000133     0.001200     YES
 Predicted change in Energy=-6.747565D-08
 Optimization completed.
    -- Stationary point found.
                           ----------------------------
                           !   Optimized Parameters   !
                           ! (Angstroms and Degrees)  !
 --------------------------                            --------------------------
 ! Name  Definition              Value          Derivative Info.                !
 --------------------------------------------------------------------------------
 ! R1    R(1,2)                  1.3609         -DE/DX =    0.0001              !
 ! R2    R(1,6)                  1.4197         -DE/DX =   -0.0001              !
 ! R3    R(1,7)                  1.0847         -DE/DX =    0.0                 !
 ! R4    R(2,3)                  1.4197         -DE/DX =   -0.0001              !
 ! R5    R(2,8)                  1.0847         -DE/DX =    0.0                 !
 ! R6    R(3,4)                  1.4248         -DE/DX =    0.0                 !
 ! R7    R(3,9)                  1.2858         -DE/DX =    0.0                 !
 ! R8    R(4,5)                  1.3706         -DE/DX =    0.0                 !
 ! R9    R(4,10)                 1.2967         -DE/DX =    0.0                 !
 ! R10   R(5,6)                  1.4248         -DE/DX =    0.0                 !
 ! R11   R(5,11)                 1.2967         -DE/DX =    0.0                 !
 ! R12   R(6,12)                 1.2858         -DE/DX =    0.0                 !
 ! A1    A(2,1,6)              118.7533         -DE/DX =    0.0                 !
 ! A2    A(2,1,7)              122.7437         -DE/DX =    0.0                 !
 ! A3    A(6,1,7)              118.5031         -DE/DX =    0.0                 !
 ! A4    A(1,2,3)              118.7533         -DE/DX =    0.0                 !
 ! A5    A(1,2,8)              122.7437         -DE/DX =    0.0                 !
 ! A6    A(3,2,8)              118.5031         -DE/DX =    0.0                 !
 ! A7    A(2,3,4)              122.8276         -DE/DX =    0.0                 !
 ! A8    A(2,3,9)              119.7323         -DE/DX =    0.0                 !
 ! A9    A(4,3,9)              117.4401         -DE/DX =    0.0                 !
 ! A10   A(3,4,5)              118.4191         -DE/DX =    0.0                 !
 ! A11   A(3,4,10)             119.4339         -DE/DX =    0.0                 !
 ! A12   A(5,4,10)             122.147          -DE/DX =    0.0                 !
 ! A13   A(4,5,6)              118.4191         -DE/DX =    0.0                 !
 ! A14   A(4,5,11)             122.147          -DE/DX =    0.0                 !
 ! A15   A(6,5,11)             119.4339         -DE/DX =    0.0                 !
 ! A16   A(1,6,5)              122.8276         -DE/DX =    0.0                 !
 ! A17   A(1,6,12)             119.7323         -DE/DX =    0.0                 !
 ! A18   A(5,6,12)             117.4401         -DE/DX =    0.0                 !
 ! D1    D(6,1,2,3)              0.0            -DE/DX =    0.0                 !
 ! D2    D(6,1,2,8)            180.0            -DE/DX =    0.0                 !
 ! D3    D(7,1,2,3)            180.0            -DE/DX =    0.0                 !
 ! D4    D(7,1,2,8)              0.0            -DE/DX =    0.0                 !
 ! D5    D(2,1,6,5)              0.0            -DE/DX =    0.0                 !
 ! D6    D(2,1,6,12)           180.0            -DE/DX =    0.0                 !
 ! D7    D(7,1,6,5)            180.0            -DE/DX =    0.0                 !
 ! D8    D(7,1,6,12)             0.0            -DE/DX =    0.0                 !
 ! D9    D(1,2,3,4)              0.0            -DE/DX =    0.0                 !
 ! D10   D(1,2,3,9)            180.0            -DE/DX =    0.0                 !
 ! D11   D(8,2,3,4)            180.0            -DE/DX =    0.0                 !
 ! D12   D(8,2,3,9)              0.0            -DE/DX =    0.0                 !
 ! D13   D(2,3,4,5)              0.0            -DE/DX =    0.0                 !
 ! D14   D(2,3,4,10)           180.0            -DE/DX =    0.0                 !
 ! D15   D(9,3,4,5)            180.0            -DE/DX =    0.0                 !
 ! D16   D(9,3,4,10)             0.0            -DE/DX =    0.0                 !
 ! D17   D(3,4,5,6)              0.0            -DE/DX =    0.0                 !
 ! D18   D(3,4,5,11)           180.0            -DE/DX =    0.0                 !
 ! D19   D(10,4,5,6)           180.0            -DE/DX =    0.0                 !
 ! D20   D(10,4,5,11)            0.0            -DE/DX =    0.0                 !
 ! D21   D(4,5,6,1)              0.0            -DE/DX =    0.0                 !
 ! D22   D(4,5,6,12)           180.0            -DE/DX =    0.0                 !
 ! D23   D(11,5,6,1)           180.0            -DE/DX =    0.0                 !
 ! D24   D(11,5,6,12)            0.0            -DE/DX =    0.0                 !
 --------------------------------------------------------------------------------
 GradGradGradGradGradGradGradGradGradGradGradGradGradGradGradGradGradGrad

 Leave Link  103 at Wed Jan 29 14:58:59 2025, MaxMem=   104857600 cpu:               0.0 elap:               0.0
 (Enter /sw/cluster/pub/apps//g16/l9999.exe)

 ----------------------------------------------------------------------

 Electric dipole moment (input orientation):
 (Debye = 10**-18 statcoulomb cm , SI units = C m)
                  (au)            (Debye)         (10**-30 SI)
   Tot        0.792228D+00      0.201364D+01      0.671679D+01
   x          0.792228D+00      0.201364D+01      0.671679D+01
   y          0.000000D+00      0.000000D+00      0.000000D+00
   z          0.000000D+00      0.000000D+00      0.000000D+00

 Dipole polarizability, Alpha (input orientation).
 (esu units = cm**3 , SI units = C**2 m**2 J**-1)
 Alpha(0;0):
               (au)            (10**-24 esu)      (10**-40 SI)
   iso        0.657507D+02      0.974326D+01      0.108408D+02
   aniso      0.534059D+02      0.791394D+01      0.880544D+01
   xx         0.721136D+02      0.106861D+02      0.118899D+02
   yx         0.000000D+00      0.000000D+00      0.000000D+00
   yy         0.929068D+02      0.137674D+02      0.153183D+02
   zx         0.000000D+00      0.000000D+00      0.000000D+00
   zy         0.000000D+00      0.000000D+00      0.000000D+00
   zz         0.322318D+02      0.477626D+01      0.531430D+01

 ----------------------------------------------------------------------

 Dipole orientation:
     6          0.00000003          1.28583868          2.34170766
     6          0.00000002         -1.28583868          2.34170766
     6          0.00000000         -2.57637166         -0.01030562
     6         -0.00000004         -1.29499682         -2.37827014
     6         -0.00000005          1.29499682         -2.37827014
     6         -0.00000003          2.57637166         -0.01030562
     1          0.00000006          2.39456198          4.06582902
     1          0.00000006         -2.39456198          4.06582901
     9          0.00000001         -5.00574733         -0.05182235
     9         -0.00000006         -2.59879473         -4.45292193
     9         -0.00000003          2.59879473         -4.45292193
     9          0.00000001          5.00574733         -0.05182235

 Electric dipole moment (dipole orientation):
 (Debye = 10**-18 statcoulomb cm , SI units = C m)
                  (au)            (Debye)         (10**-30 SI)
   Tot        0.792228D+00      0.201364D+01      0.671679D+01
   x          0.000000D+00      0.000000D+00      0.000000D+00
   y          0.000000D+00      0.000000D+00      0.000000D+00
   z          0.792228D+00      0.201364D+01      0.671679D+01

 Dipole polarizability, Alpha (dipole orientation).
 (esu units = cm**3 , SI units = C**2 m**2 J**-1)
 Alpha(0;0):
               (au)            (10**-24 esu)      (10**-40 SI)
   iso        0.657507D+02      0.974326D+01      0.108408D+02
   aniso      0.534059D+02      0.791394D+01      0.880544D+01
   xx         0.322318D+02      0.477626D+01      0.531430D+01
   yx         0.000000D+00      0.000000D+00      0.000000D+00
   yy         0.929068D+02      0.137674D+02      0.153183D+02
   zx         0.000000D+00      0.000000D+00      0.000000D+00
   zy         0.000000D+00      0.000000D+00      0.000000D+00
   zz         0.721136D+02      0.106861D+02      0.118899D+02

 ----------------------------------------------------------------------
 1\1\GINC-N03\Freq\UPBE1PBE\6-311++G(d,p)\C6H2F4(1+,2)\UNKNOWN\29-Jan-2
 025\0\\#P Geom=AllCheck Guess=TCheck SCRF=Check GenChk UPBE1PBE/6-311+
 +G(d,p) Freq\\1 2 3 4 TtFB SP\\1,2\C,1.2391783274,0.6804365267,0.00000
 00003\C,1.2391783274,-0.6804365267,0.0000000045\C,-0.0054534996,-1.363
 3571694,-0.0000000013\C,-1.2585263617,-0.6852828061,0.000000006\C,-1.2
 585263617,0.6852828061,0.0000000087\C,-0.0054534996,1.3633571694,0.000
 0000149\H,2.1515440582,1.2671476274,-0.0000000037\H,2.1515440582,-1.26
 71476274,-0.0000000075\F,-0.0274232063,-2.6489274097,-0.0000000038\F,-
 2.3563848061,-1.3752229445,0.0000000003\F,-2.3563848061,1.3752229445,-
 0.0000000158\F,-0.0274232063,2.6489274097,-0.0000000047\\Version=ES64L
 -G16RevA.03\HF=-628.3679668\S2=0.763423\S2-1=0.\S2A=0.750045\RMSD=2.52
 6e-09\RMSF=4.990e-05\ZeroPoint=0.0679284\Thermal=0.0758812\Dipole=1.78
 56892,0.,0.\DipoleDeriv=-0.1625281,0.3268181,0.,0.2039409,-0.0918473,0
 .,0.,0.,-0.041503,-0.1625281,-0.3268181,0.,-0.2039409,-0.0918473,0.,0.
 ,0.,-0.041503,0.5979031,-0.3431001,0.,0.0042154,2.0025433,0.,0.,0.,0.2
 958218,0.8671302,1.1944033,0.,0.9318262,0.2070109,0.,0.,0.,0.1569192,0
 .8671302,-1.1944033,0.,-0.9318262,0.2070109,0.,0.,0.,0.1569192,0.59790
 31,0.3431001,0.,-0.0042154,2.0025433,0.,0.,0.,0.2958218,0.1737257,0.02
 21727,0.,0.0438994,0.1392204,0.,0.,0.,0.1709951,0.1737257,-0.0221727,0
 .,-0.0438994,0.1392204,0.,0.,0.,0.1709951,-0.1356952,0.0001126,0.,0.01
 78203,-1.3165424,0.,0.,0.,-0.0435944,-0.8405357,-0.6391017,0.,-0.45778
 48,-0.440385,0.,0.,0.,-0.0386388,-0.8405357,0.6391017,0.,0.4577848,-0.
 440385,0.,0.,0.,-0.0386388,-0.1356952,-0.0001126,0.,-0.0178203,-1.3165
 424,0.,0.,0.,-0.0435944\Polar=72.113624,0.,92.9068404,0.,0.,32.2317818
 \Quadrupole=2.5855186,1.1992717,-3.7847903,0.,0.,0.\PG=C01 [X(C6H2F4)]
 \NImag=0\\0.67564804,0.07277205,0.77806816,0.,0.,0.10629325,-0.1073755
 9,0.00704200,0.,0.67564804,-0.00704200,-0.45663777,0.,-0.07277205,0.77
 806816,0.,0.,-0.04171617,0.,0.,0.10629325,-0.00886026,-0.01751062,0.,-
 0.24922189,-0.00083126,0.,0.55669701,-0.03880081,-0.02409814,0.,-0.083
 72319,-0.13965805,0.,0.01992601,0.75531367,0.,0.,-0.00954519,0.,0.,-0.
 05193499,0.,0.,0.13465383,-0.00187371,0.00721088,0.,-0.04439623,-0.027
 48336,0.,-0.19261448,0.09704389,0.,0.69468884,0.01949731,-0.02895242,0
 .,0.01719999,0.06110857,0.,0.00707907,-0.12397480,0.,0.07448711,0.7842
 1872,0.,0.,0.01457563,0.,0.,-0.00401401,0.,0.,-0.04556220,0.,0.,0.1037
 3039,-0.04439623,0.02748336,0.,-0.00187371,-0.00721088,0.,-0.03615506,
 0.05108245,0.,-0.05573510,0.01575847,0.,0.69468883,-0.01719999,0.06110
 857,0.,-0.01949731,-0.02895242,0.,0.03072189,-0.01540270,0.,-0.0157584
 7,-0.40291334,0.,-0.07448711,0.78421872,0.,0.,-0.00401401,0.,0.,0.0145
 7563,0.,0.,-0.01858638,0.,0.,-0.03744476,0.,0.,0.10373039,-0.24922189,
 0.00083126,0.,-0.00886026,0.01751061,0.,0.07979496,-0.01037604,0.,-0.0
 3615505,-0.03072189,0.,-0.19261448,-0.00707907,0.,0.55669701,0.0837231
 9,-0.13965805,0.,0.03880081,-0.02409814,0.,0.01037605,-0.02340248,0.,-
 0.05108245,-0.01540270,0.,-0.09704389,-0.12397480,0.,-0.01992601,0.755
 31367,0.,0.,-0.05193499,0.,0.,-0.00954519,0.,0.,0.00748487,0.,0.,-0.01
 858638,0.,0.,-0.04556220,0.,0.,0.13465383,-0.26912682,-0.13292966,0.,0
 .00908682,0.00406932,0.,-0.00216435,0.00147003,0.,0.00111153,-0.000685
 39,0.,-0.00237082,0.00309120,0.,-0.01704957,-0.01480879,0.,0.27717407,
 -0.13462975,-0.14131129,0.,-0.02511200,-0.00956363,0.,0.00130156,-0.00
 457150,0.,-0.00015377,-0.00076898,0.,0.00171630,-0.00254726,0.,0.01745
 645,0.01290628,0.,0.14077071,0.14410952,0.,0.,-0.03508266,0.,0.,0.0055
 2801,0.,0.,0.01083567,0.,0.,-0.00280848,0.,0.,0.00341905,0.,0.,0.00215
 543,0.,0.,0.02417703,0.00908682,-0.00406932,0.,-0.26912682,0.13292966,
 0.,-0.01704957,0.01480879,0.,-0.00237083,-0.00309120,0.,0.00111153,0.0
 0068539,0.,-0.00216435,-0.00147003,0.,0.00063505,0.00002925,0.,0.27717
 407,0.02511200,-0.00956363,0.,0.13462975,-0.14131129,0.,-0.01745645,0.
 01290628,0.,-0.00171630,-0.00254726,0.,0.00015377,-0.00076898,0.,-0.00
 130156,-0.00457150,0.,-0.00002925,0.00113342,0.,-0.14077071,0.14410952
 ,0.,0.,0.00552801,0.,0.,-0.03508266,0.,0.,0.00215543,0.,0.,0.00341905,
 0.,0.,-0.00280848,0.,0.,0.01083567,0.,0.,-0.00563629,0.,0.,0.02417703,
 -0.00493314,-0.00290971,0.,0.00730798,-0.04715042,0.,-0.07511613,-0.00
 686676,0.,-0.00069799,0.04455236,0.,-0.00342785,-0.00082023,0.,-0.0086
 1415,-0.00034063,0.,0.00080063,-0.00144394,0.,0.00246036,0.00190239,0.
 ,0.07467745,-0.00021170,0.00041464,0.,-0.00726237,-0.04162582,0.,-0.00
 548185,-0.45238036,0.,0.00105347,-0.06184305,0.,-0.00320193,0.00654458
 ,0.,-0.00099237,0.00964072,0.,0.00083726,-0.00089637,0.,0.00085991,0.0
 0084032,0.,0.00732815,0.54141279,0.,0.,0.00523083,0.,0.,0.00936787,0.,
 0.,-0.04167974,0.,0.,0.00962305,0.,0.,0.00641325,0.,0.,-0.00181098,0.,
 0.,-0.00122729,0.,0.,-0.00243371,0.,0.,0.02036434,-0.00723966,0.005865
 26,0.,0.00098445,0.01093592,0.,-0.07709703,-0.03168168,0.,-0.31591811,
 -0.16913544,0.,-0.04261100,-0.02423938,0.,0.03040096,0.01322332,0.,-0.
 00011149,0.00019321,0.,-0.00044539,-0.00177439,0.,0.00823193,0.0032664
 4,0.,0.38648755,-0.00668482,0.00513127,0.,0.00379784,-0.00287552,0.,-0
 .00548420,0.00493524,0.,-0.15551691,-0.18051592,0.,-0.06871398,-0.0349
 5340,0.,0.02363257,0.00069213,0.,-0.00009654,0.00030512,0.,0.00082898,
 0.00036436,0.,0.00215983,0.01065501,0.,0.20340897,0.19512331,0.,0.,-0.
 00307547,0.,0.,0.00437289,0.,0.,0.00357663,0.,0.,-0.03783846,0.,0.,0.0
 0849292,0.,0.,0.01041304,0.,0.,0.00030847,0.,0.,0.00076476,0.,0.,-0.00
 279902,0.,0.,0.02273514,0.00098444,-0.01093591,0.,-0.00723966,-0.00586
 526,0.,0.03040096,-0.01322332,0.,-0.04261100,0.02423938,0.,-0.31591811
 ,0.16913544,0.,-0.07709703,0.03168168,0.,-0.00044539,0.00177439,0.,-0.
 00011149,-0.00019321,0.,-0.00184960,0.00360118,0.,0.01916740,0.0064610
 3,0.,0.38648755,-0.00379784,-0.00287552,0.,0.00668482,0.00513127,0.,-0
 .02363257,0.00069213,0.,0.06871398,-0.03495340,0.,0.15551691,-0.180515
 92,0.,0.00548420,0.00493524,0.,-0.00082898,0.00036436,0.,0.00009654,0.
 00030512,0.,0.00379277,-0.00359085,0.,-0.00646103,0.00472926,0.,-0.203
 40897,0.19512331,0.,0.,0.00437289,0.,0.,-0.00307547,0.,0.,0.01041304,0
 .,0.,0.00849292,0.,0.,-0.03783846,0.,0.,0.00357663,0.,0.,0.00076476,0.
 ,0.,0.00030847,0.,0.,-0.00157768,0.,0.,-0.00537323,0.,0.,0.02273514,0.
 00730798,0.04715042,0.,-0.00493313,0.00290971,0.,-0.00861415,0.0003406
 3,0.,-0.00342785,0.00082023,0.,-0.00069799,-0.04455236,0.,-0.07511613,
 0.00686676,0.,0.00246036,-0.00190239,0.,0.00080063,0.00144394,0.,0.001
 16051,0.00020382,0.,-0.00184960,-0.00379277,0.,0.00823193,-0.00215983,
 0.,0.07467745,0.00726237,-0.04162581,0.,0.00021170,0.00041464,0.,0.000
 99237,0.00964072,0.,0.00320193,0.00654458,0.,-0.00105347,-0.06184305,0
 .,0.00548185,-0.45238037,0.,-0.00085991,0.00084032,0.,-0.00083726,-0.0
 0089637,0.,-0.00020382,-0.00917161,0.,-0.00360118,-0.00359085,0.,-0.00
 326644,0.01065501,0.,-0.00732815,0.54141279,0.,0.,0.00936787,0.,0.,0.0
 0523083,0.,0.,-0.00181098,0.,0.,0.00641325,0.,0.,0.00962305,0.,0.,-0.0
 4167974,0.,0.,-0.00243371,0.,0.,-0.00122729,0.,0.,0.00052908,0.,0.,-0.
 00157768,0.,0.,-0.00279902,0.,0.,0.02036434\\0.00004487,-0.00013798,0.
 ,0.00004487,0.00013798,0.,-0.00008965,-0.00009322,0.,0.00007244,-0.000
 00470,0.,0.00007244,0.00000470,0.,-0.00008965,0.00009322,0.,-0.0000022
 5,0.00001778,0.,-0.00000225,-0.00001778,0.,0.00000578,0.00002096,0.,-0
 .00003119,0.00000063,0.,-0.00003119,-0.00000063,0.,0.00000578,-0.00002
 096,0.\\\@


 WHERE THERE IS MUCH DESIRE TO LEARN, THERE OF NECESSITY WILL BE
 MUCH ARGUING, MUCH WRITING, MANY OPINIONS; FOR OPINION IN GOOD MEN
 IS BUT KNOWLEDGE IN THE MAKING. -- JOHN MILTON.
 Job cpu time:       0 days  0 hours 10 minutes 40.1 seconds.
 Elapsed time:       0 days  0 hours 10 minutes 41.5 seconds.
 File lengths (MBytes):  RWF=    154 Int=      0 D2E=      0 Chk=      8 Scr=      1
 Normal termination of Gaussian 16 at Wed Jan 29 14:58:59 2025.
