 Entering Gaussian System, Link 0=g16
 Initial command:
 /sw/cluster/pub/apps//g16/l1.exe "/data/natrosa/28454/Gau-2864.inp" -scrdir="/data/natrosa/28454/"
 Entering Link 1 = /sw/cluster/pub/apps//g16/l1.exe PID=      2865.
  
 Copyright (c) 1988,1990,1992,1993,1995,1998,2003,2009,2016,
            Gaussian, Inc.  All Rights Reserved.
  
 This is part of the Gaussian(R) 16 program.  It is based on
 the Gaussian(R) 09 system (copyright 2009, Gaussian, Inc.),
 the Gaussian(R) 03 system (copyright 2003, Gaussian, Inc.),
 the Gaussian(R) 98 system (copyright 1998, Gaussian, Inc.),
 the Gaussian(R) 94 system (copyright 1995, Gaussian, Inc.),
 the Gaussian 92(TM) system (copyright 1992, Gaussian, Inc.),
 the Gaussian 90(TM) system (copyright 1990, Gaussian, Inc.),
 the Gaussian 88(TM) system (copyright 1988, Gaussian, Inc.),
 the Gaussian 86(TM) system (copyright 1986, Carnegie Mellon
 University), and the Gaussian 82(TM) system (copyright 1983,
 Carnegie Mellon University). Gaussian is a federally registered
 trademark of Gaussian, Inc.
  
 This software contains proprietary and confidential information,
 including trade secrets, belonging to Gaussian, Inc.
  
 This software is provided under written license and may be
 used, copied, transmitted, or stored only in accord with that
 written license.
  
 The following legend is applicable only to US Government
 contracts under FAR:
  
                    RESTRICTED RIGHTS LEGEND
  
 Use, reproduction and disclosure by the US Government is
 subject to restrictions as set forth in subparagraphs (a)
 and (c) of the Commercial Computer Software - Restricted
 Rights clause in FAR 52.227-19.
  
 Gaussian, Inc.
 340 Quinnipiac St., Bldg. 40, Wallingford CT 06492
  
  
 ---------------------------------------------------------------
 Warning -- This program may not be used in any manner that
 competes with the business of Gaussian, Inc. or will provide
 assistance to any competitor of Gaussian, Inc.  The licensee
 of this program is prohibited from giving any competitor of
 Gaussian, Inc. access to this program.  By using this program,
 the user acknowledges that Gaussian, Inc. is engaged in the
 business of creating and licensing software in the field of
 computational chemistry and represents and warrants to the
 licensee that it is not a competitor of Gaussian, Inc. and that
 it will not use this program in any manner prohibited above.
 ---------------------------------------------------------------
  

 Cite this work as:
 Gaussian 16, Revision A.03,
 M. J. Frisch, G. W. Trucks, H. B. Schlegel, G. E. Scuseria, 
 M. A. Robb, J. R. Cheeseman, G. Scalmani, V. Barone, 
 G. A. Petersson, H. Nakatsuji, X. Li, M. Caricato, A. V. Marenich, 
 J. Bloino, B. G. Janesko, R. Gomperts, B. Mennucci, H. P. Hratchian, 
 J. V. Ortiz, A. F. Izmaylov, J. L. Sonnenberg, D. Williams-Young, 
 F. Ding, F. Lipparini, F. Egidi, J. Goings, B. Peng, A. Petrone, 
 T. Henderson, D. Ranasinghe, V. G. Zakrzewski, J. Gao, N. Rega, 
 G. Zheng, W. Liang, M. Hada, M. Ehara, K. Toyota, R. Fukuda, 
 J. Hasegawa, M. Ishida, T. Nakajima, Y. Honda, O. Kitao, H. Nakai, 
 T. Vreven, K. Throssell, J. A. Montgomery, Jr., J. E. Peralta, 
 F. Ogliaro, M. J. Bearpark, J. J. Heyd, E. N. Brothers, K. N. Kudin, 
 V. N. Staroverov, T. A. Keith, R. Kobayashi, J. Normand, 
 K. Raghavachari, A. P. Rendell, J. C. Burant, S. S. Iyengar, 
 J. Tomasi, M. Cossi, J. M. Millam, M. Klene, C. Adamo, R. Cammi, 
 J. W. Ochterski, R. L. Martin, K. Morokuma, O. Farkas, 
 J. B. Foresman, and D. J. Fox, Gaussian, Inc., Wallingford CT, 2016.
 
 ******************************************
 Gaussian 16:  ES64L-G16RevA.03 25-Dec-2016
                29-Jan-2025 
 ******************************************
 %chk=MFB-CAT.chk
 --------------------------------------------------------
 #p opt freq PBE1PBE/6-311++G(d,p) density=current nosymm
 --------------------------------------------------------
 1/18=20,19=15,26=3,38=1/1,3;
 2/9=110,12=2,15=1,17=6,18=5,40=1/2;
 3/5=4,6=6,7=1111,11=2,25=1,30=1,71=1,74=-13/1,2,3;
 4//1;
 5/5=2,38=5/2;
 6/7=2,8=2,9=2,10=2,22=-1,28=1/1;
 7/30=1/1,2,3,16;
 1/18=20,19=15,26=3/3(2);
 2/9=110,15=1/2;
 99//99;
 2/9=110,15=1/2;
 3/5=4,6=6,7=1111,11=2,25=1,30=1,71=1,74=-13/1,2,3;
 4/5=5,16=3,69=1/1;
 5/5=2,38=5/2;
 7/30=1/1,2,3,16;
 1/18=20,19=15,26=3/3(-5);
 2/9=110,15=1/2;
 6/7=2,8=2,9=2,10=2,19=2,22=-1,28=1/1;
 99/9=1/99;
 Leave Link    1 at Wed Jan 29 15:31:58 2025, MaxMem=           0 cpu:               0.0 elap:               0.0
 (Enter /sw/cluster/pub/apps//g16/l101.exe)
 ------
 MFB SP
 ------
 Symbolic Z-matrix:
 Charge =  1 Multiplicity = 2
 C                     1.20309   0.69143  0. 
 C                     1.21239  -0.69942   0. 
 C                     0.       -1.36453  0. 
 C                    -1.21239  -0.69942   0. 
 C                    -1.20309   0.69143  0. 
 C                     0.        1.38929   0. 
 H                     2.14496   1.22993   0. 
 H                     2.13714  -1.26472  0. 
 H                    -2.13714  -1.26472  0. 
 H                    -2.14496   1.22993   0. 
 H                     0.        2.47376   0. 
 F                     0.       -2.70979   0. 
 
 ITRead=  0  0  0  0  0  0  0  0  0  0  0  0
 MicOpt= -1 -1 -1 -1 -1 -1 -1 -1 -1 -1 -1 -1
 NAtoms=     12 NQM=       12 NQMF=       0 NMMI=      0 NMMIF=      0
                NMic=       0 NMicF=      0.
                    Isotopes and Nuclear Properties:
 (Nuclear quadrupole moments (NQMom) in fm**2, nuclear magnetic moments (NMagM)
  in nuclear magnetons)

  Atom         1           2           3           4           5           6           7           8           9          10
 IAtWgt=          12          12          12          12          12          12           1           1           1           1
 AtmWgt=  12.0000000  12.0000000  12.0000000  12.0000000  12.0000000  12.0000000   1.0078250   1.0078250   1.0078250   1.0078250
 NucSpn=           0           0           0           0           0           0           1           1           1           1
 AtZEff=  -0.0000000  -0.0000000  -0.0000000  -0.0000000  -0.0000000  -0.0000000  -0.0000000  -0.0000000  -0.0000000  -0.0000000
 NQMom=    0.0000000   0.0000000   0.0000000   0.0000000   0.0000000   0.0000000   0.0000000   0.0000000   0.0000000   0.0000000
 NMagM=    0.0000000   0.0000000   0.0000000   0.0000000   0.0000000   0.0000000   2.7928460   2.7928460   2.7928460   2.7928460
 AtZNuc=   6.0000000   6.0000000   6.0000000   6.0000000   6.0000000   6.0000000   1.0000000   1.0000000   1.0000000   1.0000000

  Atom        11          12
 IAtWgt=           1          19
 AtmWgt=   1.0078250  18.9984032
 NucSpn=           1           1
 AtZEff=  -0.0000000  -0.0000000
 NQMom=    0.0000000   0.0000000
 NMagM=    2.7928460   2.6288670
 AtZNuc=   1.0000000   9.0000000
 Leave Link  101 at Wed Jan 29 15:31:58 2025, MaxMem=   104857600 cpu:               0.0 elap:               0.0
 (Enter /sw/cluster/pub/apps//g16/l103.exe)

 GradGradGradGradGradGradGradGradGradGradGradGradGradGradGradGradGradGrad
 Berny optimization.
 Initialization pass.
                           ----------------------------
                           !    Initial Parameters    !
                           ! (Angstroms and Degrees)  !
 --------------------------                            --------------------------
 ! Name  Definition              Value          Derivative Info.                !
 --------------------------------------------------------------------------------
 ! R1    R(1,2)                  1.3909         estimate D2E/DX2                !
 ! R2    R(1,6)                  1.3908         estimate D2E/DX2                !
 ! R3    R(1,7)                  1.0849         estimate D2E/DX2                !
 ! R4    R(2,3)                  1.3828         estimate D2E/DX2                !
 ! R5    R(2,8)                  1.0838         estimate D2E/DX2                !
 ! R6    R(3,4)                  1.3828         estimate D2E/DX2                !
 ! R7    R(3,12)                 1.3453         estimate D2E/DX2                !
 ! R8    R(4,5)                  1.3909         estimate D2E/DX2                !
 ! R9    R(4,9)                  1.0838         estimate D2E/DX2                !
 ! R10   R(5,6)                  1.3908         estimate D2E/DX2                !
 ! R11   R(5,10)                 1.0849         estimate D2E/DX2                !
 ! R12   R(6,11)                 1.0845         estimate D2E/DX2                !
 ! A1    A(2,1,6)              120.4993         estimate D2E/DX2                !
 ! A2    A(2,1,7)              119.3749         estimate D2E/DX2                !
 ! A3    A(6,1,7)              120.1258         estimate D2E/DX2                !
 ! A4    A(1,2,3)              118.3658         estimate D2E/DX2                !
 ! A5    A(1,2,8)              121.8206         estimate D2E/DX2                !
 ! A6    A(3,2,8)              119.8136         estimate D2E/DX2                !
 ! A7    A(2,3,4)              122.5022         estimate D2E/DX2                !
 ! A8    A(2,3,12)             118.7489         estimate D2E/DX2                !
 ! A9    A(4,3,12)             118.7489         estimate D2E/DX2                !
 ! A10   A(3,4,5)              118.3658         estimate D2E/DX2                !
 ! A11   A(3,4,9)              119.8136         estimate D2E/DX2                !
 ! A12   A(5,4,9)              121.8206         estimate D2E/DX2                !
 ! A13   A(4,5,6)              120.4993         estimate D2E/DX2                !
 ! A14   A(4,5,10)             119.3749         estimate D2E/DX2                !
 ! A15   A(6,5,10)             120.1258         estimate D2E/DX2                !
 ! A16   A(1,6,5)              119.7676         estimate D2E/DX2                !
 ! A17   A(1,6,11)             120.1162         estimate D2E/DX2                !
 ! A18   A(5,6,11)             120.1162         estimate D2E/DX2                !
 ! D1    D(6,1,2,3)              0.0            estimate D2E/DX2                !
 ! D2    D(6,1,2,8)            180.0            estimate D2E/DX2                !
 ! D3    D(7,1,2,3)            180.0            estimate D2E/DX2                !
 ! D4    D(7,1,2,8)              0.0            estimate D2E/DX2                !
 ! D5    D(2,1,6,5)              0.0            estimate D2E/DX2                !
 ! D6    D(2,1,6,11)           180.0            estimate D2E/DX2                !
 ! D7    D(7,1,6,5)            180.0            estimate D2E/DX2                !
 ! D8    D(7,1,6,11)             0.0            estimate D2E/DX2                !
 ! D9    D(1,2,3,4)              0.0            estimate D2E/DX2                !
 ! D10   D(1,2,3,12)           180.0            estimate D2E/DX2                !
 ! D11   D(8,2,3,4)            180.0            estimate D2E/DX2                !
 ! D12   D(8,2,3,12)             0.0            estimate D2E/DX2                !
 ! D13   D(2,3,4,5)              0.0            estimate D2E/DX2                !
 ! D14   D(2,3,4,9)            180.0            estimate D2E/DX2                !
 ! D15   D(12,3,4,5)           180.0            estimate D2E/DX2                !
 ! D16   D(12,3,4,9)             0.0            estimate D2E/DX2                !
 ! D17   D(3,4,5,6)              0.0            estimate D2E/DX2                !
 ! D18   D(3,4,5,10)           180.0            estimate D2E/DX2                !
 ! D19   D(9,4,5,6)            180.0            estimate D2E/DX2                !
 ! D20   D(9,4,5,10)             0.0            estimate D2E/DX2                !
 ! D21   D(4,5,6,1)              0.0            estimate D2E/DX2                !
 ! D22   D(4,5,6,11)           180.0            estimate D2E/DX2                !
 ! D23   D(10,5,6,1)           180.0            estimate D2E/DX2                !
 ! D24   D(10,5,6,11)            0.0            estimate D2E/DX2                !
 --------------------------------------------------------------------------------
 Trust Radius=3.00D-01 FncErr=1.00D-07 GrdErr=1.00D-06 EigMax=2.50D+02 EigMin=1.00D-04
 Number of steps in this run=     64 maximum allowed number of steps=    100.
 GradGradGradGradGradGradGradGradGradGradGradGradGradGradGradGradGradGrad

 Leave Link  103 at Wed Jan 29 15:31:58 2025, MaxMem=   104857600 cpu:               0.0 elap:               0.0
 (Enter /sw/cluster/pub/apps//g16/l202.exe)
                          Input orientation:                          
 ---------------------------------------------------------------------
 Center     Atomic      Atomic             Coordinates (Angstroms)
 Number     Number       Type             X           Y           Z
 ---------------------------------------------------------------------
      1          6           0        1.203089    0.691434   -0.000000
      2          6           0        1.212388   -0.699424    0.000000
      3          6           0        0.000000   -1.364533   -0.000000
      4          6           0       -1.212388   -0.699424    0.000000
      5          6           0       -1.203089    0.691434   -0.000000
      6          6           0        0.000000    1.389295    0.000000
      7          1           0        2.144955    1.229929    0.000000
      8          1           0        2.137136   -1.264724   -0.000000
      9          1           0       -2.137136   -1.264724   -0.000000
     10          1           0       -2.144955    1.229929    0.000000
     11          1           0        0.000000    2.473760    0.000000
     12          9           0        0.000000   -2.709786    0.000000
 ---------------------------------------------------------------------
                    Distance matrix (angstroms):
                    1          2          3          4          5
     1  C    0.000000
     2  C    1.390889   0.000000
     3  C    2.382105   1.382843   0.000000
     4  C    2.787295   2.424777   1.382843   0.000000
     5  C    2.406178   2.787295   2.382105   1.390889   0.000000
     6  C    1.390839   2.415084   2.753828   2.415084   1.390839
     7  H    1.084937   2.142915   3.366314   3.872229   3.391073
     8  H    2.167717   1.083846   2.139465   3.396892   3.870872
     9  H    3.870872   3.396892   2.139465   1.083846   2.167717
    10  H    3.391073   3.872229   3.366314   2.142915   1.084937
    11  H    2.150374   3.396907   3.838293   3.396907   2.150374
    12  F    3.607731   2.347646   1.345253   2.347646   3.607731
                    6          7          8          9         10
     6  C    0.000000
     7  H    2.150867   0.000000
     8  H    3.407516   2.494665   0.000000
     9  H    3.407516   4.955764   4.274272   0.000000
    10  H    2.150867   4.289910   4.955764   2.494665   0.000000
    11  H    1.084465   2.479505   4.306229   4.306229   2.479505
    12  F    4.099081   4.485776   2.579836   2.579836   4.485776
                   11         12
    11  H    0.000000
    12  F    5.183546   0.000000
 Symmetry turned off by external request.
 Stoichiometry    C6H5F(1+,2)
 Framework group  C2V[C2(HCCF),SGV(C4H4)]
 Deg. of freedom    11
 Full point group                 C2V     NOp   4
 Rotational constants (GHZ):           5.7108041           2.5822658           1.7782093
 Leave Link  202 at Wed Jan 29 15:31:58 2025, MaxMem=   104857600 cpu:               0.0 elap:               0.0
 (Enter /sw/cluster/pub/apps//g16/l301.exe)
 Standard basis: 6-311++G(d,p) (5D, 7F)
 Ernie: Thresh=  0.10000D-02 Tol=  0.10000D-05 Strict=F.
   189 basis functions,   297 primitive gaussians,   196 cartesian basis functions
    25 alpha electrons       24 beta electrons
       nuclear repulsion energy       270.0364945340 Hartrees.
 IExCor= 1009 DFT=T Ex+Corr=PBE1PBE ExCW=0 ScaHFX=  0.250000
 ScaDFX=  0.750000  0.750000  1.000000  1.000000 ScalE2=  1.000000  1.000000
 IRadAn=      5 IRanWt=     -1 IRanGd=            0 ICorTp=0 IEmpDi=  4
 NAtoms=   12 NActive=   12 NUniq=   12 SFac= 1.00D+00 NAtFMM=   60 NAOKFM=F Big=F
 Integral buffers will be    131072 words long.
 Raffenetti 2 integral format.
 Two-electron integral symmetry is turned off.
 Leave Link  301 at Wed Jan 29 15:31:58 2025, MaxMem=   104857600 cpu:               0.0 elap:               0.0
 (Enter /sw/cluster/pub/apps//g16/l302.exe)
 NPDir=0 NMtPBC=     1 NCelOv=     1 NCel=       1 NClECP=     1 NCelD=      1
         NCelK=      1 NCelE2=     1 NClLst=     1 CellRange=     0.0.
 One-electron integrals computed using PRISM.
 NBasis=   189 RedAO= T EigKep=  1.59D-06  NBF=   189
 NBsUse=   189 1.00D-06 EigRej= -1.00D+00 NBFU=   189
 Precomputing XC quadrature grid using
 IXCGrd= 4 IRadAn=           5 IRanWt=          -1 IRanGd=           0 AccXCQ= 0.00D+00.
 Generated NRdTot=       0 NPtTot=           0 NUsed=           0 NTot=          32
 NSgBfM=   196   196   196   196   196 MxSgAt=    12 MxSgA2=    12.
 Leave Link  302 at Wed Jan 29 15:31:59 2025, MaxMem=   104857600 cpu:               0.1 elap:               0.2
 (Enter /sw/cluster/pub/apps//g16/l303.exe)
 DipDrv:  MaxL=1.
 Leave Link  303 at Wed Jan 29 15:31:59 2025, MaxMem=   104857600 cpu:               0.0 elap:               0.0
 (Enter /sw/cluster/pub/apps//g16/l401.exe)
 ExpMin= 3.60D-02 ExpMax= 1.14D+04 ExpMxC= 1.72D+03 IAcc=3 IRadAn=         5 AccDes= 0.00D+00
 Harris functional with IExCor= 1009 and IRadAn=       5 diagonalized for initial guess.
 HarFok:  IExCor= 1009 AccDes= 0.00D+00 IRadAn=         5 IDoV= 1 UseB2=F ITyADJ=14
 ICtDFT=  3500011 ScaDFX=  1.000000  1.000000  1.000000  1.000000
 FoFCou: FMM=F IPFlag=           0 FMFlag=      100000 FMFlg1=           0
         NFxFlg=           0 DoJE=T BraDBF=F KetDBF=T FulRan=T
         wScrn=  0.000000 ICntrl=       500 IOpCl=  0 I1Cent=   200000004 NGrid=           0
         NMat0=    1 NMatS0=      1 NMatT0=    0 NMatD0=    1 NMtDS0=    0 NMtDT0=    0
 Symmetry not used in FoFCou.
 Harris En= -330.954846798853    
 JPrj=0 DoOrth=F DoCkMO=F.
 Initial guess <Sx>= 0.0000 <Sy>= 0.0000 <Sz>= 0.5000 <S**2>= 0.7500 S= 0.5000
 Leave Link  401 at Wed Jan 29 15:32:00 2025, MaxMem=   104857600 cpu:               1.2 elap:               1.2
 (Enter /sw/cluster/pub/apps//g16/l502.exe)
 Two-electron integral symmetry not used.
 UHF open shell SCF:
 Using DIIS extrapolation, IDIIS=  1040.
 NGot=   104857600 LenX=   104778092 LenY=   104739235
 Requested convergence on RMS density matrix=1.00D-08 within 128 cycles.
 Requested convergence on MAX density matrix=1.00D-06.
 Requested convergence on             energy=1.00D-06.
 No special actions if energy rises.
 Fock matrices will be formed incrementally for  20 cycles.

 Cycle   1  Pass 1  IDiag  1:
 FoFJK:  IHMeth= 1 ICntrl=       0 DoSepK=F KAlg= 0 I1Cent=           0 FoldK=F
 IRaf= 980000000 NMat=       1 IRICut=       1 DoRegI=T DoRafI=F ISym2E= 0 IDoP0=0 IntGTp=1.
 FoFCou: FMM=F IPFlag=           0 FMFlag=      100000 FMFlg1=           0
         NFxFlg=           0 DoJE=F BraDBF=F KetDBF=F FulRan=T
         wScrn=  0.000000 ICntrl=         0 IOpCl=  1 I1Cent=           0 NGrid=           0
         NMat0=    1 NMatS0=      1 NMatT0=    0 NMatD0=    1 NMtDS0=    0 NMtDT0=    0
 Symmetry not used in FoFCou.
 E= -330.763218409826    
 DIIS: error= 3.49D-02 at cycle   1 NSaved=   1.
 NSaved= 1 IEnMin= 1 EnMin= -330.763218409826     IErMin= 1 ErrMin= 3.49D-02
 ErrMax= 3.49D-02  0.00D+00 EMaxC= 1.00D-01 BMatC= 4.44D-01 BMatP= 4.44D-01
 IDIUse=3 WtCom= 6.51D-01 WtEn= 3.49D-01
 Coeff-Com:  0.100D+01
 Coeff-En:   0.100D+01
 Coeff:      0.100D+01
 Gap=     0.318 Goal=   None    Shift=    0.000
 Gap=     0.024 Goal=   None    Shift=    0.000
 GapD=    0.024 DampG=0.250 DampE=0.500 DampFc=0.2500 IDamp=-1.
 Damping current iteration by 2.50D-01
 RMSDP=6.00D-03 MaxDP=2.63D-01              OVMax= 3.71D-01

 Cycle   2  Pass 1  IDiag  1:
 RMSU=  1.22D-03    CP:  9.81D-01
 E= -330.795086548079     Delta-E=       -0.031868138253 Rises=F Damp=T
 DIIS: error= 1.99D-02 at cycle   2 NSaved=   2.
 NSaved= 2 IEnMin= 2 EnMin= -330.795086548079     IErMin= 2 ErrMin= 1.99D-02
 ErrMax= 1.99D-02  0.00D+00 EMaxC= 1.00D-01 BMatC= 1.41D-01 BMatP= 4.44D-01
 IDIUse=3 WtCom= 8.01D-01 WtEn= 1.99D-01
 Coeff-Com: -0.813D+00 0.181D+01
 Coeff-En:   0.000D+00 0.100D+01
 Coeff:     -0.652D+00 0.165D+01
 Gap=     0.259 Goal=   None    Shift=    0.000
 Gap=     0.067 Goal=   None    Shift=    0.000
 RMSDP=4.46D-03 MaxDP=1.24D-01 DE=-3.19D-02 OVMax= 3.26D-01

 Cycle   3  Pass 1  IDiag  1:
 RMSU=  3.25D-03    CP:  9.25D-01  2.41D+00
 E= -330.844506639025     Delta-E=       -0.049420090946 Rises=F Damp=F
 DIIS: error= 2.00D-02 at cycle   3 NSaved=   3.
 NSaved= 3 IEnMin= 3 EnMin= -330.844506639025     IErMin= 2 ErrMin= 1.99D-02
 ErrMax= 2.00D-02  0.00D+00 EMaxC= 1.00D-01 BMatC= 5.04D-02 BMatP= 1.41D-01
 IDIUse=3 WtCom= 8.00D-01 WtEn= 2.00D-01
 Coeff-Com: -0.501D+00 0.940D+00 0.562D+00
 Coeff-En:   0.000D+00 0.000D+00 0.100D+01
 Coeff:     -0.401D+00 0.751D+00 0.650D+00
 Gap=     0.262 Goal=   None    Shift=    0.000
 Gap=     0.079 Goal=   None    Shift=    0.000
 RMSDP=1.57D-03 MaxDP=5.38D-02 DE=-4.94D-02 OVMax= 1.35D-01

 Cycle   4  Pass 1  IDiag  1:
 RMSU=  9.76D-04    CP:  9.05D-01  2.74D+00  7.89D-01
 E= -330.851131852651     Delta-E=       -0.006625213626 Rises=F Damp=F
 DIIS: error= 1.47D-02 at cycle   4 NSaved=   4.
 NSaved= 4 IEnMin= 4 EnMin= -330.851131852651     IErMin= 4 ErrMin= 1.47D-02
 ErrMax= 1.47D-02  0.00D+00 EMaxC= 1.00D-01 BMatC= 2.67D-02 BMatP= 5.04D-02
 IDIUse=3 WtCom= 8.53D-01 WtEn= 1.47D-01
 Coeff-Com: -0.124D+00 0.213D+00 0.430D+00 0.481D+00
 Coeff-En:   0.000D+00 0.000D+00 0.377D+00 0.623D+00
 Coeff:     -0.106D+00 0.182D+00 0.422D+00 0.502D+00
 Gap=     0.255 Goal=   None    Shift=    0.000
 Gap=     0.079 Goal=   None    Shift=    0.000
 RMSDP=5.91D-04 MaxDP=1.48D-02 DE=-6.63D-03 OVMax= 5.49D-02

 Cycle   5  Pass 1  IDiag  1:
 RMSU=  4.04D-04    CP:  9.04D-01  2.70D+00  8.66D-01  6.47D-01
 E= -330.858479939308     Delta-E=       -0.007348086657 Rises=F Damp=F
 DIIS: error= 1.59D-03 at cycle   5 NSaved=   5.
 NSaved= 5 IEnMin= 5 EnMin= -330.858479939308     IErMin= 5 ErrMin= 1.59D-03
 ErrMax= 1.59D-03  0.00D+00 EMaxC= 1.00D-01 BMatC= 6.59D-04 BMatP= 2.67D-02
 IDIUse=3 WtCom= 9.84D-01 WtEn= 1.59D-02
 Coeff-Com: -0.181D-01 0.239D-01 0.159D+00 0.240D+00 0.596D+00
 Coeff-En:   0.000D+00 0.000D+00 0.000D+00 0.000D+00 0.100D+01
 Coeff:     -0.178D-01 0.235D-01 0.157D+00 0.236D+00 0.602D+00
 Gap=     0.255 Goal=   None    Shift=    0.000
 Gap=     0.083 Goal=   None    Shift=    0.000
 RMSDP=1.64D-04 MaxDP=6.23D-03 DE=-7.35D-03 OVMax= 7.62D-03

 Cycle   6  Pass 1  IDiag  1:
 RMSU=  1.49D-04    CP:  9.03D-01  2.71D+00  8.71D-01  6.87D-01  9.25D-01
 E= -330.858624801167     Delta-E=       -0.000144861859 Rises=F Damp=F
 DIIS: error= 6.96D-04 at cycle   6 NSaved=   6.
 NSaved= 6 IEnMin= 6 EnMin= -330.858624801167     IErMin= 6 ErrMin= 6.96D-04
 ErrMax= 6.96D-04  0.00D+00 EMaxC= 1.00D-01 BMatC= 1.13D-04 BMatP= 6.59D-04
 IDIUse=3 WtCom= 9.93D-01 WtEn= 6.96D-03
 Coeff-Com:  0.105D-01-0.195D-01 0.115D-01 0.391D-01 0.306D+00 0.653D+00
 Coeff-En:   0.000D+00 0.000D+00 0.000D+00 0.000D+00 0.000D+00 0.100D+01
 Coeff:      0.104D-01-0.194D-01 0.115D-01 0.388D-01 0.303D+00 0.655D+00
 Gap=     0.254 Goal=   None    Shift=    0.000
 Gap=     0.084 Goal=   None    Shift=    0.000
 RMSDP=8.25D-05 MaxDP=3.08D-03 DE=-1.45D-04 OVMax= 4.39D-03

 Cycle   7  Pass 1  IDiag  1:
 RMSU=  5.20D-05    CP:  9.02D-01  2.72D+00  8.75D-01  7.07D-01  1.03D+00
                    CP:  1.06D+00
 E= -330.858655026932     Delta-E=       -0.000030225765 Rises=F Damp=F
 DIIS: error= 3.84D-04 at cycle   7 NSaved=   7.
 NSaved= 7 IEnMin= 7 EnMin= -330.858655026932     IErMin= 7 ErrMin= 3.84D-04
 ErrMax= 3.84D-04  0.00D+00 EMaxC= 1.00D-01 BMatC= 2.39D-05 BMatP= 1.13D-04
 IDIUse=3 WtCom= 9.96D-01 WtEn= 3.84D-03
 Coeff-Com:  0.100D-01-0.158D-01-0.312D-01-0.409D-01-0.373D-01 0.301D+00
 Coeff-Com:  0.814D+00
 Coeff-En:   0.000D+00 0.000D+00 0.000D+00 0.000D+00 0.000D+00 0.000D+00
 Coeff-En:   0.100D+01
 Coeff:      0.100D-01-0.157D-01-0.311D-01-0.408D-01-0.372D-01 0.300D+00
 Coeff:      0.815D+00
 Gap=     0.254 Goal=   None    Shift=    0.000
 Gap=     0.085 Goal=   None    Shift=    0.000
 RMSDP=6.42D-05 MaxDP=2.63D-03 DE=-3.02D-05 OVMax= 1.63D-03

 Cycle   8  Pass 1  IDiag  1:
 RMSU=  4.05D-05    CP:  9.02D-01  2.73D+00  8.82D-01  7.23D-01  1.01D+00
                    CP:  1.29D+00  1.30D+00
 E= -330.858663416016     Delta-E=       -0.000008389084 Rises=F Damp=F
 DIIS: error= 1.08D-04 at cycle   8 NSaved=   8.
 NSaved= 8 IEnMin= 8 EnMin= -330.858663416016     IErMin= 8 ErrMin= 1.08D-04
 ErrMax= 1.08D-04  0.00D+00 EMaxC= 1.00D-01 BMatC= 3.66D-06 BMatP= 2.39D-05
 IDIUse=3 WtCom= 9.99D-01 WtEn= 1.08D-03
 Coeff-Com:  0.233D-02-0.288D-02-0.151D-01-0.247D-01-0.823D-01-0.593D-02
 Coeff-Com:  0.378D+00 0.751D+00
 Coeff-En:   0.000D+00 0.000D+00 0.000D+00 0.000D+00 0.000D+00 0.000D+00
 Coeff-En:   0.000D+00 0.100D+01
 Coeff:      0.232D-02-0.288D-02-0.151D-01-0.247D-01-0.822D-01-0.593D-02
 Coeff:      0.377D+00 0.751D+00
 Gap=     0.253 Goal=   None    Shift=    0.000
 Gap=     0.085 Goal=   None    Shift=    0.000
 RMSDP=2.45D-05 MaxDP=1.11D-03 DE=-8.39D-06 OVMax= 7.93D-04

 Cycle   9  Pass 1  IDiag  1:
 RMSU=  8.88D-06    CP:  9.02D-01  2.73D+00  8.82D-01  7.26D-01  1.05D+00
                    CP:  1.37D+00  1.33D+00  9.35D-01
 E= -330.858664920885     Delta-E=       -0.000001504869 Rises=F Damp=F
 DIIS: error= 3.59D-05 at cycle   9 NSaved=   9.
 NSaved= 9 IEnMin= 9 EnMin= -330.858664920885     IErMin= 9 ErrMin= 3.59D-05
 ErrMax= 3.59D-05  0.00D+00 EMaxC= 1.00D-01 BMatC= 1.20D-07 BMatP= 3.66D-06
 IDIUse=1 WtCom= 1.00D+00 WtEn= 0.00D+00
 Coeff-Com: -0.781D-03 0.122D-02 0.230D-02 0.312D-02 0.159D-02-0.224D-01
 Coeff-Com: -0.535D-01-0.109D-01 0.108D+01
 Coeff:     -0.781D-03 0.122D-02 0.230D-02 0.312D-02 0.159D-02-0.224D-01
 Coeff:     -0.535D-01-0.109D-01 0.108D+01
 Gap=     0.253 Goal=   None    Shift=    0.000
 Gap=     0.085 Goal=   None    Shift=    0.000
 RMSDP=4.69D-06 MaxDP=1.81D-04 DE=-1.50D-06 OVMax= 3.35D-04

 Cycle  10  Pass 1  IDiag  1:
 RMSU=  3.33D-06    CP:  9.02D-01  2.73D+00  8.82D-01  7.27D-01  1.05D+00
                    CP:  1.38D+00  1.38D+00  9.60D-01  1.05D+00
 E= -330.858665055680     Delta-E=       -0.000000134795 Rises=F Damp=F
 DIIS: error= 1.82D-05 at cycle  10 NSaved=  10.
 NSaved=10 IEnMin=10 EnMin= -330.858665055680     IErMin=10 ErrMin= 1.82D-05
 ErrMax= 1.82D-05  0.00D+00 EMaxC= 1.00D-01 BMatC= 3.48D-08 BMatP= 1.20D-07
 IDIUse=1 WtCom= 1.00D+00 WtEn= 0.00D+00
 Coeff-Com: -0.435D-03 0.574D-03 0.197D-02 0.319D-02 0.100D-01-0.211D-02
 Coeff-Com: -0.531D-01-0.824D-01 0.167D+00 0.955D+00
 Coeff:     -0.435D-03 0.574D-03 0.197D-02 0.319D-02 0.100D-01-0.211D-02
 Coeff:     -0.531D-01-0.824D-01 0.167D+00 0.955D+00
 Gap=     0.253 Goal=   None    Shift=    0.000
 Gap=     0.085 Goal=   None    Shift=    0.000
 RMSDP=2.02D-06 MaxDP=9.75D-05 DE=-1.35D-07 OVMax= 1.76D-04

 Cycle  11  Pass 1  IDiag  1:
 RMSU=  1.04D-06    CP:  9.02D-01  2.73D+00  8.82D-01  7.27D-01  1.05D+00
                    CP:  1.38D+00  1.38D+00  9.73D-01  1.16D+00  1.34D+00
 E= -330.858665091154     Delta-E=       -0.000000035474 Rises=F Damp=F
 DIIS: error= 1.51D-05 at cycle  11 NSaved=  11.
 NSaved=11 IEnMin=11 EnMin= -330.858665091154     IErMin=11 ErrMin= 1.51D-05
 ErrMax= 1.51D-05  0.00D+00 EMaxC= 1.00D-01 BMatC= 1.35D-08 BMatP= 3.48D-08
 IDIUse=1 WtCom= 1.00D+00 WtEn= 0.00D+00
 Coeff-Com: -0.561D-04 0.300D-04 0.823D-04 0.365D-03 0.345D-02 0.496D-02
 Coeff-Com: -0.849D-02-0.228D-01-0.194D+00 0.359D+00 0.857D+00
 Coeff:     -0.561D-04 0.300D-04 0.823D-04 0.365D-03 0.345D-02 0.496D-02
 Coeff:     -0.849D-02-0.228D-01-0.194D+00 0.359D+00 0.857D+00
 Gap=     0.253 Goal=   None    Shift=    0.000
 Gap=     0.085 Goal=   None    Shift=    0.000
 RMSDP=1.33D-06 MaxDP=5.41D-05 DE=-3.55D-08 OVMax= 1.31D-04

 Cycle  12  Pass 1  IDiag  1:
 RMSU=  5.81D-07    CP:  9.02D-01  2.73D+00  8.82D-01  7.27D-01  1.05D+00
                    CP:  1.38D+00  1.39D+00  9.78D-01  1.18D+00  1.59D+00
                    CP:  1.56D+00
 E= -330.858665105113     Delta-E=       -0.000000013958 Rises=F Damp=F
 DIIS: error= 7.87D-06 at cycle  12 NSaved=  12.
 NSaved=12 IEnMin=12 EnMin= -330.858665105113     IErMin=12 ErrMin= 7.87D-06
 ErrMax= 7.87D-06  0.00D+00 EMaxC= 1.00D-01 BMatC= 3.99D-09 BMatP= 1.35D-08
 IDIUse=1 WtCom= 1.00D+00 WtEn= 0.00D+00
 Coeff-Com:  0.602D-04-0.859D-04-0.694D-03-0.951D-03-0.264D-02 0.169D-02
 Coeff-Com:  0.146D-01 0.244D-01-0.888D-01-0.279D+00 0.187D+00 0.114D+01
 Coeff:      0.602D-04-0.859D-04-0.694D-03-0.951D-03-0.264D-02 0.169D-02
 Coeff:      0.146D-01 0.244D-01-0.888D-01-0.279D+00 0.187D+00 0.114D+01
 Gap=     0.253 Goal=   None    Shift=    0.000
 Gap=     0.085 Goal=   None    Shift=    0.000
 RMSDP=1.47D-06 MaxDP=6.06D-05 DE=-1.40D-08 OVMax= 1.05D-04

 Cycle  13  Pass 1  IDiag  1:
 RMSU=  3.86D-07    CP:  9.02D-01  2.73D+00  8.82D-01  7.28D-01  1.05D+00
                    CP:  1.38D+00  1.40D+00  9.83D-01  1.17D+00  1.82D+00
                    CP:  2.25D+00  1.71D+00
 E= -330.858665110575     Delta-E=       -0.000000005463 Rises=F Damp=F
 DIIS: error= 3.08D-06 at cycle  13 NSaved=  13.
 NSaved=13 IEnMin=13 EnMin= -330.858665110575     IErMin=13 ErrMin= 3.08D-06
 ErrMax= 3.08D-06  0.00D+00 EMaxC= 1.00D-01 BMatC= 4.06D-10 BMatP= 3.99D-09
 IDIUse=1 WtCom= 1.00D+00 WtEn= 0.00D+00
 Coeff-Com: -0.148D-04 0.271D-04 0.719D-04 0.114D-03-0.257D-03-0.138D-02
 Coeff-Com: -0.121D-03-0.175D-02 0.529D-01-0.132D-01-0.180D+00-0.264D+00
 Coeff-Com:  0.141D+01
 Coeff:     -0.148D-04 0.271D-04 0.719D-04 0.114D-03-0.257D-03-0.138D-02
 Coeff:     -0.121D-03-0.175D-02 0.529D-01-0.132D-01-0.180D+00-0.264D+00
 Coeff:      0.141D+01
 Gap=     0.253 Goal=   None    Shift=    0.000
 Gap=     0.085 Goal=   None    Shift=    0.000
 RMSDP=7.55D-07 MaxDP=2.72D-05 DE=-5.46D-09 OVMax= 4.91D-05

 Cycle  14  Pass 1  IDiag  1:
 RMSU=  1.13D-07    CP:  9.02D-01  2.73D+00  8.82D-01  7.28D-01  1.05D+00
                    CP:  1.39D+00  1.40D+00  9.86D-01  1.17D+00  1.88D+00
                    CP:  2.63D+00  2.20D+00  1.42D+00
 E= -330.858665111354     Delta-E=       -0.000000000779 Rises=F Damp=F
 DIIS: error= 7.11D-07 at cycle  14 NSaved=  14.
 NSaved=14 IEnMin=14 EnMin= -330.858665111354     IErMin=14 ErrMin= 7.11D-07
 ErrMax= 7.11D-07  0.00D+00 EMaxC= 1.00D-01 BMatC= 2.93D-11 BMatP= 4.06D-10
 IDIUse=1 WtCom= 1.00D+00 WtEn= 0.00D+00
 Coeff-Com: -0.443D-05 0.553D-05 0.345D-04 0.671D-04 0.229D-03 0.519D-04
 Coeff-Com: -0.924D-03-0.175D-02-0.131D-02 0.249D-01 0.144D-01-0.616D-01
 Coeff-Com: -0.216D+00 0.124D+01
 Coeff:     -0.443D-05 0.553D-05 0.345D-04 0.671D-04 0.229D-03 0.519D-04
 Coeff:     -0.924D-03-0.175D-02-0.131D-02 0.249D-01 0.144D-01-0.616D-01
 Coeff:     -0.216D+00 0.124D+01
 Gap=     0.253 Goal=   None    Shift=    0.000
 Gap=     0.085 Goal=   None    Shift=    0.000
 RMSDP=1.54D-07 MaxDP=6.57D-06 DE=-7.79D-10 OVMax= 1.00D-05

 Cycle  15  Pass 1  IDiag  1:
 RMSU=  2.75D-08    CP:  9.02D-01  2.73D+00  8.82D-01  7.28D-01  1.05D+00
                    CP:  1.39D+00  1.40D+00  9.86D-01  1.17D+00  1.89D+00
                    CP:  2.69D+00  2.30D+00  1.57D+00  1.27D+00
 E= -330.858665111397     Delta-E=       -0.000000000043 Rises=F Damp=F
 DIIS: error= 2.40D-07 at cycle  15 NSaved=  15.
 NSaved=15 IEnMin=15 EnMin= -330.858665111397     IErMin=15 ErrMin= 2.40D-07
 ErrMax= 2.40D-07  0.00D+00 EMaxC= 1.00D-01 BMatC= 3.39D-12 BMatP= 2.93D-11
 IDIUse=1 WtCom= 1.00D+00 WtEn= 0.00D+00
 Coeff-Com: -0.134D-06-0.169D-06-0.104D-04-0.107D-04-0.279D-04 0.101D-03
 Coeff-Com:  0.165D-03 0.319D-03-0.356D-02-0.260D-02 0.972D-02 0.298D-01
 Coeff-Com: -0.716D-01-0.203D+00 0.124D+01
 Coeff:     -0.134D-06-0.169D-06-0.104D-04-0.107D-04-0.279D-04 0.101D-03
 Coeff:      0.165D-03 0.319D-03-0.356D-02-0.260D-02 0.972D-02 0.298D-01
 Coeff:     -0.716D-01-0.203D+00 0.124D+01
 Gap=     0.253 Goal=   None    Shift=    0.000
 Gap=     0.085 Goal=   None    Shift=    0.000
 RMSDP=2.73D-08 MaxDP=9.11D-07 DE=-4.29D-11 OVMax= 2.99D-06

 Cycle  16  Pass 1  IDiag  1:
 RMSU=  8.58D-09    CP:  9.02D-01  2.73D+00  8.82D-01  7.28D-01  1.05D+00
                    CP:  1.39D+00  1.40D+00  9.86D-01  1.17D+00  1.89D+00
                    CP:  2.70D+00  2.32D+00  1.59D+00  1.38D+00  1.34D+00
 E= -330.858665111402     Delta-E=       -0.000000000005 Rises=F Damp=F
 DIIS: error= 3.96D-08 at cycle  16 NSaved=  16.
 NSaved=16 IEnMin=16 EnMin= -330.858665111402     IErMin=16 ErrMin= 3.96D-08
 ErrMax= 3.96D-08  0.00D+00 EMaxC= 1.00D-01 BMatC= 2.03D-13 BMatP= 3.39D-12
 IDIUse=1 WtCom= 1.00D+00 WtEn= 0.00D+00
 Coeff-Com: -0.434D-07 0.161D-06-0.331D-05-0.598D-05-0.244D-04-0.856D-05
 Coeff-Com:  0.831D-04 0.168D-03 0.315D-03-0.231D-02-0.283D-02 0.531D-02
 Coeff-Com:  0.273D-01-0.128D+00-0.314D-01 0.113D+01
 Coeff:     -0.434D-07 0.161D-06-0.331D-05-0.598D-05-0.244D-04-0.856D-05
 Coeff:      0.831D-04 0.168D-03 0.315D-03-0.231D-02-0.283D-02 0.531D-02
 Coeff:      0.273D-01-0.128D+00-0.314D-01 0.113D+01
 Gap=     0.253 Goal=   None    Shift=    0.000
 Gap=     0.085 Goal=   None    Shift=    0.000
 RMSDP=7.48D-09 MaxDP=2.79D-07 DE=-4.55D-12 OVMax= 1.08D-06

 SCF Done:  E(UPBE1PBE) =  -330.858665111     A.U. after   16 cycles
            NFock= 16  Conv=0.75D-08     -V/T= 2.0032
 <Sx>= 0.0000 <Sy>= 0.0000 <Sz>= 0.5000 <S**2>= 0.7644 S= 0.5072
 <L.S>=  0.00000000000    
 KE= 3.298051349019D+02 PE=-1.303723072975D+03 EE= 3.730227784278D+02
 Annihilation of the first spin contaminant:
 S**2 before annihilation     0.7644,   after     0.7501
 Leave Link  502 at Wed Jan 29 15:32:51 2025, MaxMem=   104857600 cpu:              50.6 elap:              50.7
 (Enter /sw/cluster/pub/apps//g16/l601.exe)
 Copying SCF densities to generalized density rwf, IOpCl= 1 IROHF=0.

 **********************************************************************

            Population analysis using the SCF density.

 **********************************************************************

 Alpha  occ. eigenvalues --  -25.02060 -10.58077 -10.49497 -10.47192 -10.47190
 Alpha  occ. eigenvalues --  -10.46918 -10.46917  -1.49746  -1.14363  -1.02982
 Alpha  occ. eigenvalues --   -1.01828  -0.88366  -0.86927  -0.79543  -0.74440
 Alpha  occ. eigenvalues --   -0.74392  -0.72988  -0.68642  -0.67034  -0.64670
 Alpha  occ. eigenvalues --   -0.62640  -0.61559  -0.58952  -0.52299  -0.50552
 Alpha virt. eigenvalues --   -0.25207  -0.24244  -0.14189  -0.12921  -0.11052
 Alpha virt. eigenvalues --   -0.10403  -0.08948  -0.08221  -0.08142  -0.08005
 Alpha virt. eigenvalues --   -0.06173  -0.04498  -0.04130  -0.03177  -0.02533
 Alpha virt. eigenvalues --   -0.01687  -0.01145   0.00234   0.00535   0.00568
 Alpha virt. eigenvalues --    0.00740   0.00950   0.01033   0.01366   0.03341
 Alpha virt. eigenvalues --    0.04103   0.05835   0.06428   0.06980   0.07974
 Alpha virt. eigenvalues --    0.08237   0.09067   0.11126   0.12052   0.12725
 Alpha virt. eigenvalues --    0.14211   0.15407   0.16384   0.16565   0.18127
 Alpha virt. eigenvalues --    0.19775   0.20062   0.21165   0.23770   0.25515
 Alpha virt. eigenvalues --    0.28049   0.31266   0.32314   0.32360   0.35303
 Alpha virt. eigenvalues --    0.36560   0.37265   0.37397   0.37912   0.38661
 Alpha virt. eigenvalues --    0.38884   0.41883   0.42536   0.43088   0.48276
 Alpha virt. eigenvalues --    0.49013   0.54353   0.55781   0.58198   0.60155
 Alpha virt. eigenvalues --    0.60438   0.64898   0.66160   0.68356   0.69769
 Alpha virt. eigenvalues --    0.70317   0.70384   0.73535   0.73684   0.74452
 Alpha virt. eigenvalues --    0.75434   0.82429   0.82715   0.85294   0.86585
 Alpha virt. eigenvalues --    0.89641   0.95421   1.09158   1.13657   1.23692
 Alpha virt. eigenvalues --    1.23821   1.25527   1.29942   1.30368   1.34729
 Alpha virt. eigenvalues --    1.35147   1.35372   1.35690   1.39836   1.43992
 Alpha virt. eigenvalues --    1.44080   1.44962   1.52550   1.53216   1.56547
 Alpha virt. eigenvalues --    1.62655   1.66224   1.67970   1.68929   1.72811
 Alpha virt. eigenvalues --    1.74145   1.75989   1.76437   1.80074   1.82267
 Alpha virt. eigenvalues --    1.84617   1.86432   1.88492   2.05973   2.08508
 Alpha virt. eigenvalues --    2.10237   2.20953   2.23419   2.25567   2.29970
 Alpha virt. eigenvalues --    2.41213   2.42193   2.44305   2.51323   2.53163
 Alpha virt. eigenvalues --    2.54239   2.54291   2.56546   2.58498   2.58858
 Alpha virt. eigenvalues --    2.63343   2.64092   2.64970   2.68437   2.74969
 Alpha virt. eigenvalues --    2.85917   2.92279   2.96178   3.13117   3.15930
 Alpha virt. eigenvalues --    3.28643   3.29367   3.42384   3.51883   3.57418
 Alpha virt. eigenvalues --    3.64212   3.77513   3.79590   3.84133   3.91474
 Alpha virt. eigenvalues --    3.94553   3.95255   4.62435   4.67484   6.13291
 Alpha virt. eigenvalues --    6.27359   6.57307  23.41851  23.77503  23.84929
 Alpha virt. eigenvalues --   23.94023  23.97246  24.06702  66.72183
  Beta  occ. eigenvalues --  -25.01656 -10.57500 -10.48803 -10.47074 -10.47072
  Beta  occ. eigenvalues --  -10.46940 -10.46938  -1.48860  -1.13201  -1.01531
  Beta  occ. eigenvalues --   -1.00930  -0.87766  -0.86133  -0.79232  -0.74004
  Beta  occ. eigenvalues --   -0.73970  -0.69903  -0.68253  -0.66964  -0.64331
  Beta  occ. eigenvalues --   -0.61315  -0.59151  -0.58629  -0.49962
  Beta virt. eigenvalues --   -0.41444  -0.22700  -0.21062  -0.14047  -0.12405
  Beta virt. eigenvalues --   -0.11053  -0.10255  -0.08327  -0.08100  -0.07949
  Beta virt. eigenvalues --   -0.06061  -0.05835  -0.04451  -0.03606  -0.03145
  Beta virt. eigenvalues --   -0.02265  -0.01393  -0.01101   0.00560   0.00596
  Beta virt. eigenvalues --    0.00785   0.00813   0.01188   0.01267   0.01556
  Beta virt. eigenvalues --    0.03376   0.04235   0.06145   0.06706   0.07064
  Beta virt. eigenvalues --    0.08212   0.08416   0.09541   0.11513   0.12226
  Beta virt. eigenvalues --    0.12848   0.14632   0.15679   0.16401   0.16908
  Beta virt. eigenvalues --    0.18218   0.20053   0.20218   0.21234   0.23895
  Beta virt. eigenvalues --    0.25631   0.28290   0.31569   0.32545   0.33526
  Beta virt. eigenvalues --    0.35745   0.36744   0.38138   0.38154   0.38903
  Beta virt. eigenvalues --    0.39283   0.39324   0.42159   0.43588   0.43891
  Beta virt. eigenvalues --    0.48892   0.49933   0.54483   0.55984   0.58444
  Beta virt. eigenvalues --    0.60258   0.61128   0.65568   0.66248   0.68596
  Beta virt. eigenvalues --    0.70384   0.70513   0.70544   0.73794   0.74588
  Beta virt. eigenvalues --    0.75403   0.77076   0.82955   0.83125   0.85567
  Beta virt. eigenvalues --    0.88057   0.91140   0.96706   1.09965   1.14491
  Beta virt. eigenvalues --    1.24037   1.24617   1.25743   1.30025   1.31026
  Beta virt. eigenvalues --    1.35544   1.35640   1.35814   1.36325   1.40705
  Beta virt. eigenvalues --    1.44158   1.44442   1.46424   1.53171   1.53571
  Beta virt. eigenvalues --    1.56666   1.62684   1.66599   1.69808   1.69855
  Beta virt. eigenvalues --    1.72960   1.75177   1.76036   1.77553   1.80811
  Beta virt. eigenvalues --    1.82592   1.85488   1.86834   1.88933   2.06976
  Beta virt. eigenvalues --    2.08743   2.11584   2.21577   2.23497   2.25622
  Beta virt. eigenvalues --    2.30075   2.41419   2.44014   2.44926   2.51430
  Beta virt. eigenvalues --    2.53182   2.54427   2.56376   2.56584   2.58586
  Beta virt. eigenvalues --    2.59460   2.63554   2.64363   2.67509   2.68928
  Beta virt. eigenvalues --    2.74994   2.87473   2.92631   2.96627   3.13730
  Beta virt. eigenvalues --    3.16042   3.28829   3.29866   3.42812   3.52313
  Beta virt. eigenvalues --    3.58545   3.65385   3.78748   3.79816   3.84952
  Beta virt. eigenvalues --    3.91958   3.95197   3.95535   4.63425   4.67987
  Beta virt. eigenvalues --    6.14880   6.27649   6.57653  23.42168  23.77996
  Beta virt. eigenvalues --   23.85007  23.94468  23.97314  24.06907  66.72526
          Condensed to atoms (all electrons):
               1          2          3          4          5          6
     1  C    6.782975  -1.440972   1.426147  -0.921004   1.081651  -1.112518
     2  C   -1.440972   9.044378  -1.930140  -0.494625  -0.921004   1.398822
     3  C    1.426147  -1.930140   8.467963  -1.930140   1.426147  -1.467801
     4  C   -0.921004  -0.494625  -1.930140   9.044378  -1.440972   1.398822
     5  C    1.081651  -0.921004   1.426147  -1.440972   6.782975  -1.112518
     6  C   -1.112518   1.398822  -1.467801   1.398822  -1.112518   6.801503
     7  H    0.426876  -0.114923   0.061168   0.008340   0.017746  -0.084490
     8  H   -0.034130   0.529453  -0.155006  -0.065100   0.001226   0.039008
     9  H    0.001226  -0.065100  -0.155006   0.529453  -0.034130   0.039008
    10  H    0.017746   0.008340   0.061168  -0.114923   0.426876  -0.084490
    11  H   -0.036625   0.009418  -0.005043   0.009418  -0.036625   0.381316
    12  F    0.069068  -0.339157   0.720344  -0.339157   0.069068  -0.062844
               7          8          9         10         11         12
     1  C    0.426876  -0.034130   0.001226   0.017746  -0.036625   0.069068
     2  C   -0.114923   0.529453  -0.065100   0.008340   0.009418  -0.339157
     3  C    0.061168  -0.155006  -0.155006   0.061168  -0.005043   0.720344
     4  C    0.008340  -0.065100   0.529453  -0.114923   0.009418  -0.339157
     5  C    0.017746   0.001226  -0.034130   0.426876  -0.036625   0.069068
     6  C   -0.084490   0.039008   0.039008  -0.084490   0.381316  -0.062844
     7  H    0.384084  -0.005502   0.000480   0.000370  -0.000950   0.002240
     8  H   -0.005502   0.392564  -0.001206   0.000480   0.000723  -0.025025
     9  H    0.000480  -0.001206   0.392564  -0.005502   0.000723  -0.025025
    10  H    0.000370   0.000480  -0.005502   0.384084  -0.000950   0.002240
    11  H   -0.000950   0.000723   0.000723  -0.000950   0.375478  -0.000829
    12  F    0.002240  -0.025025  -0.025025   0.002240  -0.000829   8.943706
          Atomic-Atomic Spin Densities.
               1          2          3          4          5          6
     1  C    0.014953  -0.062941   0.041761  -0.081871   0.055043  -0.016478
     2  C   -0.062941   0.084976   0.001370   0.082912  -0.081871   0.047393
     3  C    0.041761   0.001370   0.426467   0.001370   0.041761  -0.066251
     4  C   -0.081871   0.082912   0.001370   0.084976  -0.062941   0.047393
     5  C    0.055043  -0.081871   0.041761  -0.062941   0.014953  -0.016478
     6  C   -0.016478   0.047393  -0.066251   0.047393  -0.016478   0.532807
     7  H   -0.000291   0.002208   0.000920  -0.006120   0.005588  -0.001308
     8  H    0.003649  -0.009346   0.005415   0.004892  -0.003183  -0.000059
     9  H   -0.003183   0.004892   0.005415  -0.009346   0.003649  -0.000059
    10  H    0.005588  -0.006120   0.000920   0.002208  -0.000291  -0.001308
    11  H    0.000959   0.003393  -0.002180   0.003393   0.000959  -0.005577
    12  F   -0.003614   0.003602  -0.066916   0.003602  -0.003614   0.002387
               7          8          9         10         11         12
     1  C   -0.000291   0.003649  -0.003183   0.005588   0.000959  -0.003614
     2  C    0.002208  -0.009346   0.004892  -0.006120   0.003393   0.003602
     3  C    0.000920   0.005415   0.005415   0.000920  -0.002180  -0.066916
     4  C   -0.006120   0.004892  -0.009346   0.002208   0.003393   0.003602
     5  C    0.005588  -0.003183   0.003649  -0.000291   0.000959  -0.003614
     6  C   -0.001308  -0.000059  -0.000059  -0.001308  -0.005577   0.002387
     7  H   -0.004060   0.001177  -0.000195   0.000439   0.000183   0.000026
     8  H    0.001177  -0.009472   0.000266  -0.000195   0.000008  -0.000150
     9  H   -0.000195   0.000266  -0.009472   0.001177   0.000008  -0.000150
    10  H    0.000439  -0.000195   0.001177  -0.004060   0.000183   0.000026
    11  H    0.000183   0.000008   0.000008   0.000183  -0.029252   0.000039
    12  F    0.000026  -0.000150  -0.000150   0.000026   0.000039   0.148911
 Mulliken charges and spin densities:
               1          2
     1  C   -0.260438  -0.046424
     2  C    0.315512   0.070467
     3  C   -0.519800   0.390051
     4  C    0.315512   0.070467
     5  C   -0.260438  -0.046424
     6  C   -0.133818   0.522461
     7  H    0.304560  -0.001433
     8  H    0.322516  -0.006998
     9  H    0.322516  -0.006998
    10  H    0.304560  -0.001433
    11  H    0.303945  -0.027882
    12  F   -0.014628   0.084148
 Sum of Mulliken charges =   1.00000   1.00000
 Mulliken charges and spin densities with hydrogens summed into heavy atoms:
               1          2
     1  C    0.044122  -0.047857
     2  C    0.638028   0.063468
     3  C   -0.519800   0.390051
     4  C    0.638028   0.063468
     5  C    0.044122  -0.047857
     6  C    0.170127   0.494578
    12  F   -0.014628   0.084148
 Electronic spatial extent (au):  <R**2>=            660.2418
 Charge=              1.0000 electrons
 Dipole moment (field-independent basis, Debye):
    X=             -0.0000    Y=              1.1094    Z=             -0.0000  Tot=              1.1094
 Quadrupole moment (field-independent basis, Debye-Ang):
   XX=            -24.1581   YY=            -26.9609   ZZ=            -38.9515
   XY=              0.0000   XZ=              0.0000   YZ=              0.0000
 Traceless Quadrupole moment (field-independent basis, Debye-Ang):
   XX=              5.8654   YY=              3.0626   ZZ=             -8.9280
   XY=              0.0000   XZ=              0.0000   YZ=              0.0000
 Octapole moment (field-independent basis, Debye-Ang**2):
  XXX=             -0.0000  YYY=             49.3207  ZZZ=              0.0000  XYY=             -0.0000
  XXY=              9.9294  XXZ=              0.0000  XZZ=             -0.0000  YZZ=             10.4180
  YYZ=             -0.0000  XYZ=             -0.0000
 Hexadecapole moment (field-independent basis, Debye-Ang**3):
 XXXX=           -203.6198 YYYY=           -424.5379 ZZZZ=            -38.3820 XXXY=              0.0000
 XXXZ=              0.0000 YYYX=              0.0000 YYYZ=              0.0000 ZZZX=              0.0000
 ZZZY=              0.0000 XXYY=            -96.7600 XXZZ=            -56.4949 YYZZ=            -82.4802
 XXYZ=              0.0000 YYXZ=              0.0000 ZZXY=              0.0000
 N-N= 2.700364945340D+02 E-N=-1.303723072343D+03  KE= 3.298051349019D+02
                          Isotropic Fermi Contact Couplings
        Atom                 a.u.       MegaHertz       Gauss      10(-4) cm-1
     1  C(13)             -0.01417     -15.93060      -5.68444      -5.31388
     2  C(13)             -0.00498      -5.59653      -1.99698      -1.86680
     3  C(13)              0.01156      12.99324       4.63631       4.33408
     4  C(13)             -0.00498      -5.59653      -1.99698      -1.86680
     5  C(13)             -0.01417     -15.93060      -5.68444      -5.31388
     6  C(13)              0.02161      24.29753       8.66996       8.10479
     7  H(1)              -0.00033      -1.47249      -0.52542      -0.49117
     8  H(1)              -0.00177      -7.90004      -2.81893      -2.63517
     9  H(1)              -0.00177      -7.90004      -2.81893      -2.63517
    10  H(1)              -0.00033      -1.47249      -0.52542      -0.49117
    11  H(1)              -0.00711     -31.79462     -11.34511     -10.60554
    12  F(19)              0.01920      80.77043      28.82090      26.94211
 --------------------------------------------------------
       Center         ----  Spin Dipole Couplings  ----
                      3XX-RR        3YY-RR        3ZZ-RR
 --------------------------------------------------------
     1   Atom        0.000032     -0.005482      0.005449
     2   Atom       -0.049237     -0.060611      0.109849
     3   Atom       -0.225815     -0.224193      0.450008
     4   Atom       -0.049237     -0.060611      0.109849
     5   Atom        0.000032     -0.005482      0.005449
     6   Atom       -0.261537     -0.253839      0.515376
     7   Atom        0.011543     -0.005706     -0.005836
     8   Atom        0.015089     -0.009055     -0.006034
     9   Atom        0.015089     -0.009055     -0.006034
    10   Atom        0.011543     -0.005706     -0.005836
    11   Atom       -0.033573      0.038856     -0.005283
    12   Atom       -0.407267     -0.426117      0.833384
 --------------------------------------------------------
                        XY            XZ            YZ
 --------------------------------------------------------
     1   Atom       -0.004752      0.000000     -0.000000
     2   Atom        0.002392     -0.000000     -0.000000
     3   Atom        0.000000      0.000000      0.000000
     4   Atom       -0.002392      0.000000     -0.000000
     5   Atom        0.004752     -0.000000     -0.000000
     6   Atom        0.000000      0.000000     -0.000000
     7   Atom        0.000921     -0.000000     -0.000000
     8   Atom       -0.005882     -0.000000      0.000000
     9   Atom        0.005882      0.000000      0.000000
    10   Atom       -0.000921      0.000000     -0.000000
    11   Atom       -0.000000     -0.000000     -0.000000
    12   Atom       -0.000000      0.000000      0.000000
 --------------------------------------------------------


 ---------------------------------------------------------------------------------
              Anisotropic Spin Dipole Couplings in Principal Axis System
 ---------------------------------------------------------------------------------

       Atom             a.u.   MegaHertz   Gauss  10(-4) cm-1        Axes

              Baa    -0.0082    -1.103    -0.394    -0.368  0.4991  0.8666  0.0000
     1 C(13)  Bbb     0.0028     0.372     0.133     0.124  0.8666 -0.4991 -0.0000
              Bcc     0.0054     0.731     0.261     0.244  0.0000 -0.0000  1.0000
 
              Baa    -0.0611    -8.198    -2.925    -2.735 -0.1977  0.9803  0.0000
     2 C(13)  Bbb    -0.0488    -6.542    -2.334    -2.182  0.9803  0.1977  0.0000
              Bcc     0.1098    14.741     5.260     4.917 -0.0000 -0.0000  1.0000
 
              Baa    -0.2258   -30.302   -10.813   -10.108  1.0000 -0.0000 -0.0000
     3 C(13)  Bbb    -0.2242   -30.085   -10.735   -10.035  0.0000  1.0000 -0.0000
              Bcc     0.4500    60.387    21.548    20.143  0.0000  0.0000  1.0000
 
              Baa    -0.0611    -8.198    -2.925    -2.735  0.1977  0.9803  0.0000
     4 C(13)  Bbb    -0.0488    -6.542    -2.334    -2.182  0.9803 -0.1977 -0.0000
              Bcc     0.1098    14.741     5.260     4.917  0.0000 -0.0000  1.0000
 
              Baa    -0.0082    -1.103    -0.394    -0.368 -0.4991  0.8666  0.0000
     5 C(13)  Bbb     0.0028     0.372     0.133     0.124  0.8666  0.4991  0.0000
              Bcc     0.0054     0.731     0.261     0.244 -0.0000 -0.0000  1.0000
 
              Baa    -0.2615   -35.096   -12.523   -11.707  1.0000 -0.0000 -0.0000
     6 C(13)  Bbb    -0.2538   -34.063   -12.154   -11.362  0.0000  1.0000  0.0000
              Bcc     0.5154    69.158    24.677    23.069  0.0000 -0.0000  1.0000
 
              Baa    -0.0058    -3.114    -1.111    -1.039 -0.0000  0.0000  1.0000
     7 H(1)   Bbb    -0.0058    -3.071    -1.096    -1.024 -0.0532  0.9986 -0.0000
              Bcc     0.0116     6.185     2.207     2.063  0.9986  0.0532 -0.0000
 
              Baa    -0.0104    -5.555    -1.982    -1.853  0.2248  0.9744 -0.0000
     8 H(1)   Bbb    -0.0060    -3.220    -1.149    -1.074  0.0000  0.0000  1.0000
              Bcc     0.0164     8.775     3.131     2.927  0.9744 -0.2248 -0.0000
 
              Baa    -0.0104    -5.555    -1.982    -1.853 -0.2248  0.9744 -0.0000
     9 H(1)   Bbb    -0.0060    -3.220    -1.149    -1.074 -0.0000  0.0000  1.0000
              Bcc     0.0164     8.775     3.131     2.927  0.9744  0.2248  0.0000
 
              Baa    -0.0058    -3.114    -1.111    -1.039  0.0000  0.0000  1.0000
    10 H(1)   Bbb    -0.0058    -3.071    -1.096    -1.024  0.0532  0.9986 -0.0000
              Bcc     0.0116     6.185     2.207     2.063  0.9986 -0.0532  0.0000
 
              Baa    -0.0336   -17.913    -6.392    -5.975  1.0000  0.0000  0.0000
    11 H(1)   Bbb    -0.0053    -2.819    -1.006    -0.940 -0.0000  0.0000  1.0000
              Bcc     0.0389    20.732     7.398     6.915 -0.0000  1.0000 -0.0000
 
              Baa    -0.4261  -214.007   -76.363   -71.385  0.0000  1.0000 -0.0000
    12 F(19)  Bbb    -0.4073  -204.540   -72.985   -68.227  1.0000 -0.0000 -0.0000
              Bcc     0.8334   418.547   149.348   139.612  0.0000  0.0000  1.0000
 

 ---------------------------------------------------------------------------------

 No NMR shielding tensors so no spin-rotation constants.
 Leave Link  601 at Wed Jan 29 15:32:51 2025, MaxMem=   104857600 cpu:               0.1 elap:               0.1
 (Enter /sw/cluster/pub/apps//g16/l701.exe)
 ... and contract with generalized density number  0.
 Compute integral first derivatives.
 Leave Link  701 at Wed Jan 29 15:32:52 2025, MaxMem=   104857600 cpu:               0.0 elap:               0.1
 (Enter /sw/cluster/pub/apps//g16/l702.exe)
 L702 exits ... SP integral derivatives will be done elsewhere.
 Leave Link  702 at Wed Jan 29 15:32:52 2025, MaxMem=   104857600 cpu:               0.0 elap:               0.0
 (Enter /sw/cluster/pub/apps//g16/l703.exe)
 Integral derivatives from FoFJK, PRISM(SPDF).
 Compute integral first derivatives, UseDBF=F ICtDFT=           0.
 Calling FoFJK, ICntrl=      2127 FMM=F ISym2X=0 I1Cent= 0 IOpClX= 1 NMat=1 NMatS=1 NMatT=0.
 FoFJK:  IHMeth= 1 ICntrl=    2127 DoSepK=F KAlg= 0 I1Cent=           0 FoldK=F
 IRaf=         0 NMat=       1 IRICut=       1 DoRegI=T DoRafI=F ISym2E= 0 IDoP0=0 IntGTp=1.
 FoFCou: FMM=F IPFlag=           0 FMFlag=      100000 FMFlg1=         800
         NFxFlg=           0 DoJE=F BraDBF=F KetDBF=F FulRan=T
         wScrn=  0.000000 ICntrl=      2127 IOpCl=  1 I1Cent=           0 NGrid=           0
         NMat0=    1 NMatS0=      1 NMatT0=    0 NMatD0=    1 NMtDS0=    0 NMtDT0=    0
 Symmetry not used in FoFCou.
 Leave Link  703 at Wed Jan 29 15:33:00 2025, MaxMem=   104857600 cpu:               8.2 elap:               8.3
 (Enter /sw/cluster/pub/apps//g16/l716.exe)
 Dipole        =-5.30064881D-12 4.36466718D-01-2.34916839D-09
 -------------------------------------------------------------------
 Center     Atomic                   Forces (Hartrees/Bohr)
 Number     Number              X              Y              Z
 -------------------------------------------------------------------
      1        6           0.028427515   -0.031468925    0.000000001
      2        6           0.032030188    0.031153769   -0.000000001
      3        6          -0.000000000   -0.058122580    0.000000002
      4        6          -0.032030188    0.031153769   -0.000000001
      5        6          -0.028427515   -0.031468925    0.000000001
      6        6          -0.000000000    0.015189284   -0.000000001
      7        1          -0.000079340   -0.000642127   -0.000000000
      8        1           0.000635336   -0.000065064    0.000000000
      9        1          -0.000635336   -0.000065064    0.000000000
     10        1           0.000079340   -0.000642127   -0.000000000
     11        1           0.000000000    0.001008505    0.000000000
     12        9           0.000000000    0.043969486   -0.000000001
 -------------------------------------------------------------------
 Cartesian Forces:  Max     0.058122580 RMS     0.019101155
 Leave Link  716 at Wed Jan 29 15:33:00 2025, MaxMem=   104857600 cpu:               0.0 elap:               0.0
 (Enter /sw/cluster/pub/apps//g16/l103.exe)

 GradGradGradGradGradGradGradGradGradGradGradGradGradGradGradGradGradGrad
 Berny optimization.
 FormGI is forming the generalized inverse of G from B-inverse, IUseBI=4.
 Internal  Forces:  Max     0.043969486 RMS     0.011534156
 Search for a local minimum.
 Step number   1 out of a maximum of   64
 All quantities printed in internal units (Hartrees-Bohrs-Radians)
 RMS Force = .11534D-01 SwitMx=.10000D-02 MixMth= 1
 Mixed Optimization -- RFO/linear search
 Second derivative matrix not updated -- first step.
 ITU=  0
     Eigenvalues ---    0.02210   0.02210   0.02210   0.02210   0.02231
     Eigenvalues ---    0.02256   0.02266   0.02296   0.02316   0.16000
     Eigenvalues ---    0.16000   0.16000   0.16000   0.16000   0.22000
     Eigenvalues ---    0.22000   0.23509   0.25000   0.35404   0.35404
     Eigenvalues ---    0.35460   0.35534   0.35534   0.42881   0.43279
     Eigenvalues ---    0.47164   0.47171   0.47959   0.48405   0.56044
 RFO step:  Lambda=-1.48831699D-02 EMin= 2.20955875D-02
 Linear search not attempted -- first point.
 Iteration  1 RMS(Cart)=  0.03477019 RMS(Int)=  0.00030463
 Iteration  2 RMS(Cart)=  0.00035541 RMS(Int)=  0.00000424
 Iteration  3 RMS(Cart)=  0.00000013 RMS(Int)=  0.00000424
 ITry= 1 IFail=0 DXMaxC= 1.12D-01 DCOld= 1.00D+10 DXMaxT= 3.00D-01 DXLimC= 3.00D+00 Rises=F
 Variable       Old X    -DE/DX   Delta X   Delta X   Delta X     New X
                                 (Linear)    (Quad)   (Total)
    R1        2.62840  -0.02401   0.00000  -0.04934  -0.04934   2.57905
    R2        2.62830   0.02944   0.00000   0.05980   0.05980   2.68811
    R3        2.05023  -0.00039   0.00000  -0.00105  -0.00105   2.04918
    R4        2.61320   0.03118   0.00000   0.06295   0.06295   2.67614
    R5        2.04817   0.00058   0.00000   0.00156   0.00156   2.04973
    R6        2.61320   0.03118   0.00000   0.06295   0.06295   2.67614
    R7        2.54216  -0.04397   0.00000  -0.07643  -0.07643   2.46573
    R8        2.62840  -0.02401   0.00000  -0.04934  -0.04934   2.57905
    R9        2.04817   0.00058   0.00000   0.00156   0.00156   2.04973
   R10        2.62830   0.02944   0.00000   0.05980   0.05980   2.68811
   R11        2.05023  -0.00039   0.00000  -0.00105  -0.00105   2.04918
   R12        2.04934   0.00101   0.00000   0.00273   0.00273   2.05207
    A1        2.10311  -0.00386   0.00000  -0.01704  -0.01704   2.08607
    A2        2.08349   0.00140   0.00000   0.00548   0.00548   2.08897
    A3        2.09659   0.00246   0.00000   0.01156   0.01156   2.10815
    A4        2.06587  -0.00571   0.00000  -0.02195  -0.02196   2.04391
    A5        2.12617   0.00257   0.00000   0.00936   0.00936   2.13553
    A6        2.09114   0.00314   0.00000   0.01259   0.01259   2.10374
    A7        2.13807   0.00984   0.00000   0.04048   0.04046   2.17853
    A8        2.07256  -0.00492   0.00000  -0.02024  -0.02023   2.05233
    A9        2.07256  -0.00492   0.00000  -0.02024  -0.02023   2.05233
   A10        2.06587  -0.00571   0.00000  -0.02195  -0.02196   2.04391
   A11        2.09114   0.00314   0.00000   0.01259   0.01259   2.10374
   A12        2.12617   0.00257   0.00000   0.00936   0.00936   2.13553
   A13        2.10311  -0.00386   0.00000  -0.01704  -0.01704   2.08607
   A14        2.08349   0.00140   0.00000   0.00548   0.00548   2.08897
   A15        2.09659   0.00246   0.00000   0.01156   0.01156   2.10815
   A16        2.09034   0.00930   0.00000   0.03751   0.03753   2.12786
   A17        2.09642  -0.00465   0.00000  -0.01876  -0.01876   2.07766
   A18        2.09642  -0.00465   0.00000  -0.01876  -0.01876   2.07766
    D1        0.00000  -0.00000   0.00000  -0.00000  -0.00000   0.00000
    D2        3.14159  -0.00000   0.00000  -0.00000   0.00000   3.14159
    D3        3.14159  -0.00000   0.00000  -0.00000   0.00000   3.14159
    D4       -0.00000   0.00000   0.00000   0.00000   0.00000   0.00000
    D5       -0.00000   0.00000   0.00000   0.00000   0.00000   0.00000
    D6        3.14159  -0.00000   0.00000  -0.00000   0.00000  -3.14159
    D7        3.14159  -0.00000   0.00000   0.00000   0.00000   3.14159
    D8        0.00000  -0.00000   0.00000  -0.00000   0.00000   0.00000
    D9       -0.00000   0.00000   0.00000   0.00000   0.00000   0.00000
   D10        3.14159  -0.00000   0.00000  -0.00000  -0.00000   3.14159
   D11        3.14159   0.00000   0.00000   0.00000   0.00000   3.14159
   D12        0.00000  -0.00000   0.00000  -0.00000  -0.00000   0.00000
   D13        0.00000  -0.00000   0.00000  -0.00000  -0.00000   0.00000
   D14        3.14159  -0.00000   0.00000  -0.00000   0.00000   3.14159
   D15        3.14159   0.00000   0.00000   0.00000   0.00000   3.14159
   D16       -0.00000   0.00000   0.00000   0.00000   0.00000   0.00000
   D17       -0.00000   0.00000   0.00000   0.00000   0.00000   0.00000
   D18        3.14159   0.00000   0.00000   0.00000   0.00000   3.14159
   D19        3.14159   0.00000   0.00000   0.00000   0.00000   3.14159
   D20        0.00000  -0.00000   0.00000  -0.00000   0.00000   0.00000
   D21        0.00000  -0.00000   0.00000  -0.00000  -0.00000   0.00000
   D22        3.14159   0.00000   0.00000   0.00000   0.00000   3.14159
   D23        3.14159   0.00000   0.00000  -0.00000   0.00000   3.14159
   D24       -0.00000   0.00000   0.00000   0.00000   0.00000   0.00000
         Item               Value     Threshold  Converged?
 Maximum Force            0.043969     0.000450     NO 
 RMS     Force            0.011534     0.000300     NO 
 Maximum Displacement     0.111684     0.001800     NO 
 RMS     Displacement     0.034970     0.001200     NO 
 Predicted change in Energy=-7.685238D-03
 Lowest energy point so far.  Saving SCF results.
 GradGradGradGradGradGradGradGradGradGradGradGradGradGradGradGradGradGrad

 Leave Link  103 at Wed Jan 29 15:33:00 2025, MaxMem=   104857600 cpu:               0.0 elap:               0.0
 (Enter /sw/cluster/pub/apps//g16/l202.exe)
                          Input orientation:                          
 ---------------------------------------------------------------------
 Center     Atomic      Atomic             Coordinates (Angstroms)
 Number     Number       Type             X           Y           Z
 ---------------------------------------------------------------------
      1          6           0        1.243637    0.674726   -0.000000
      2          6           0        1.255118   -0.690003    0.000000
      3          6           0       -0.000000   -1.345875    0.000000
      4          6           0       -1.255118   -0.690003   -0.000000
      5          6           0       -1.243637    0.674726    0.000000
      6          6           0       -0.000000    1.365253    0.000000
      7          1           0        2.181117    1.219716   -0.000000
      8          1           0        2.176220   -1.262784    0.000000
      9          1           0       -2.176220   -1.262784   -0.000000
     10          1           0       -2.181117    1.219716    0.000000
     11          1           0       -0.000000    2.451163   -0.000000
     12          9           0        0.000000   -2.650685   -0.000000
 ---------------------------------------------------------------------
                    Distance matrix (angstroms):
                    1          2          3          4          5
     1  C    0.000000
     2  C    1.364777   0.000000
     3  C    2.372649   1.416153   0.000000
     4  C    2.847150   2.510236   1.416153   0.000000
     5  C    2.487274   2.847150   2.372649   1.364777   0.000000
     6  C    1.422484   2.408194   2.711129   2.408194   1.422484
     7  H    1.084382   2.122381   3.367422   3.931252   3.467846
     8  H    2.150268   1.084669   2.177806   3.478816   3.930568
     9  H    3.930568   3.478816   2.177806   1.084669   2.150268
    10  H    3.467846   3.931252   3.367422   2.122381   1.084382
    11  H    2.168493   3.382639   3.797038   3.382639   2.168493
    12  F    3.550351   2.328003   1.304810   2.328003   3.550351
                    6          7          8          9         10
     6  C    0.000000
     7  H    2.185967   0.000000
     8  H    3.412113   2.482505   0.000000
     9  H    3.412113   5.014897   4.352441   0.000000
    10  H    2.185967   4.362234   5.014897   2.482505   0.000000
    11  H    1.085909   2.504742   4.304571   4.304571   2.504742
    12  F    4.015939   4.442666   2.581125   2.581125   4.442666
                   11         12
    11  H    0.000000
    12  F    5.101848   0.000000
 Symmetry turned off by external request.
 Stoichiometry    C6H5F(1+,2)
 Framework group  CS[SG(C2HF),X(C4H4)]
 Deg. of freedom    17
 Full point group                 CS      NOp   2
 Rotational constants (GHZ):           5.3728341           2.6866210           1.7910354
 Leave Link  202 at Wed Jan 29 15:33:00 2025, MaxMem=   104857600 cpu:               0.0 elap:               0.0
 (Enter /sw/cluster/pub/apps//g16/l301.exe)
 Standard basis: 6-311++G(d,p) (5D, 7F)
 Ernie: Thresh=  0.10000D-02 Tol=  0.10000D-05 Strict=F.
   189 basis functions,   297 primitive gaussians,   196 cartesian basis functions
    25 alpha electrons       24 beta electrons
       nuclear repulsion energy       269.7981534466 Hartrees.
 IExCor= 1009 DFT=T Ex+Corr=PBE1PBE ExCW=0 ScaHFX=  0.250000
 ScaDFX=  0.750000  0.750000  1.000000  1.000000 ScalE2=  1.000000  1.000000
 IRadAn=      5 IRanWt=     -1 IRanGd=            0 ICorTp=0 IEmpDi=  4
 NAtoms=   12 NActive=   12 NUniq=   12 SFac= 1.00D+00 NAtFMM=   60 NAOKFM=F Big=F
 Integral buffers will be    131072 words long.
 Raffenetti 2 integral format.
 Two-electron integral symmetry is turned off.
 Leave Link  301 at Wed Jan 29 15:33:00 2025, MaxMem=   104857600 cpu:               0.0 elap:               0.0
 (Enter /sw/cluster/pub/apps//g16/l302.exe)
 NPDir=0 NMtPBC=     1 NCelOv=     1 NCel=       1 NClECP=     1 NCelD=      1
         NCelK=      1 NCelE2=     1 NClLst=     1 CellRange=     0.0.
 One-electron integrals computed using PRISM.
 NBasis=   189 RedAO= T EigKep=  1.69D-06  NBF=   189
 NBsUse=   189 1.00D-06 EigRej= -1.00D+00 NBFU=   189
 Precomputing XC quadrature grid using
 IXCGrd= 4 IRadAn=           5 IRanWt=          -1 IRanGd=           0 AccXCQ= 0.00D+00.
 Generated NRdTot=       0 NPtTot=           0 NUsed=           0 NTot=          32
 NSgBfM=   196   196   196   196   196 MxSgAt=    12 MxSgA2=    12.
 Leave Link  302 at Wed Jan 29 15:33:01 2025, MaxMem=   104857600 cpu:               0.1 elap:               0.1
 (Enter /sw/cluster/pub/apps//g16/l303.exe)
 DipDrv:  MaxL=1.
 Leave Link  303 at Wed Jan 29 15:33:01 2025, MaxMem=   104857600 cpu:               0.0 elap:               0.0
 (Enter /sw/cluster/pub/apps//g16/l401.exe)
 Initial guess from the checkpoint file:  "MFB-CAT.chk"
 B after Tr=     0.000000    0.014098    0.000000
         Rot=    1.000000   -0.000000    0.000000   -0.000000 Ang=   0.00 deg.
 Guess basis will be translated and rotated to current coordinates.
 JPrj=2 DoOrth=T DoCkMO=T.
 Initial guess <Sx>= 0.0000 <Sy>= 0.0000 <Sz>= 0.5000 <S**2>= 0.7647 S= 0.5073
 Generating alternative initial guess.
 ExpMin= 3.60D-02 ExpMax= 1.14D+04 ExpMxC= 1.72D+03 IAcc=3 IRadAn=         5 AccDes= 0.00D+00
 Harris functional with IExCor= 1009 and IRadAn=       5 diagonalized for initial guess.
 HarFok:  IExCor= 1009 AccDes= 0.00D+00 IRadAn=         5 IDoV= 1 UseB2=F ITyADJ=14
 ICtDFT=  3500011 ScaDFX=  1.000000  1.000000  1.000000  1.000000
 FoFCou: FMM=F IPFlag=           0 FMFlag=      100000 FMFlg1=           0
         NFxFlg=           0 DoJE=T BraDBF=F KetDBF=T FulRan=T
         wScrn=  0.000000 ICntrl=       500 IOpCl=  0 I1Cent=   200000004 NGrid=           0
         NMat0=    1 NMatS0=      1 NMatT0=    0 NMatD0=    1 NMtDS0=    0 NMtDT0=    0
 Symmetry not used in FoFCou.
 Harris En= -330.960003850054    
 Leave Link  401 at Wed Jan 29 15:33:02 2025, MaxMem=   104857600 cpu:               1.2 elap:               1.2
 (Enter /sw/cluster/pub/apps//g16/l502.exe)
 Two-electron integral symmetry not used.
 UHF open shell SCF:
 Using DIIS extrapolation, IDIIS=  1040.
 NGot=   104857600 LenX=   104778092 LenY=   104739235
 Requested convergence on RMS density matrix=1.00D-08 within 128 cycles.
 Requested convergence on MAX density matrix=1.00D-06.
 Requested convergence on             energy=1.00D-06.
 No special actions if energy rises.
 Fock matrices will be formed incrementally for  20 cycles.

 Cycle   1  Pass 1  IDiag  1:
 FoFJK:  IHMeth= 1 ICntrl=       0 DoSepK=F KAlg= 0 I1Cent=           0 FoldK=F
 IRaf= 980000000 NMat=       1 IRICut=       1 DoRegI=T DoRafI=F ISym2E= 0 IDoP0=0 IntGTp=1.
 FoFCou: FMM=F IPFlag=           0 FMFlag=      100000 FMFlg1=           0
         NFxFlg=           0 DoJE=F BraDBF=F KetDBF=F FulRan=T
         wScrn=  0.000000 ICntrl=         0 IOpCl=  1 I1Cent=           0 NGrid=           0
         NMat0=    1 NMatS0=      1 NMatT0=    0 NMatD0=    1 NMtDS0=    0 NMtDT0=    0
 Symmetry not used in FoFCou.
 E= -330.862408702956    
 DIIS: error= 3.72D-03 at cycle   1 NSaved=   1.
 NSaved= 1 IEnMin= 1 EnMin= -330.862408702956     IErMin= 1 ErrMin= 3.72D-03
 ErrMax= 3.72D-03  0.00D+00 EMaxC= 1.00D-01 BMatC= 1.35D-02 BMatP= 1.35D-02
 IDIUse=3 WtCom= 9.63D-01 WtEn= 3.72D-02
 Coeff-Com:  0.100D+01
 Coeff-En:   0.100D+01
 Coeff:      0.100D+01
 Gap=     0.471 Goal=   None    Shift=    0.000
 Gap=     0.469 Goal=   None    Shift=    0.000
 GapD=    0.469 DampG=2.000 DampE=1.000 DampFc=2.0000 IDamp=-1.
 RMSDP=4.94D-03 MaxDP=2.09D-01              OVMax= 1.93D-02

 Cycle   2  Pass 1  IDiag  1:
 RMSU=  2.70D-03    CP:  8.99D-01
 E= -330.866061653928     Delta-E=       -0.003652950971 Rises=F Damp=F
 DIIS: error= 1.48D-03 at cycle   2 NSaved=   2.
 NSaved= 2 IEnMin= 2 EnMin= -330.866061653928     IErMin= 2 ErrMin= 1.48D-03
 ErrMax= 1.48D-03  0.00D+00 EMaxC= 1.00D-01 BMatC= 1.04D-03 BMatP= 1.35D-02
 IDIUse=3 WtCom= 9.85D-01 WtEn= 1.48D-02
 Coeff-Com:  0.838D-01 0.916D+00
 Coeff-En:   0.000D+00 0.100D+01
 Coeff:      0.825D-01 0.917D+00
 Gap=     0.251 Goal=   None    Shift=    0.000
 Gap=     0.102 Goal=   None    Shift=    0.000
 RMSDP=3.39D-04 MaxDP=1.77D-02 DE=-3.65D-03 OVMax= 9.97D-03

 Cycle   3  Pass 1  IDiag  1:
 RMSU=  3.22D-04    CP:  9.02D-01  9.86D-01
 E= -330.866078005890     Delta-E=       -0.000016351963 Rises=F Damp=F
 DIIS: error= 1.50D-03 at cycle   3 NSaved=   3.
 NSaved= 3 IEnMin= 3 EnMin= -330.866078005890     IErMin= 2 ErrMin= 1.48D-03
 ErrMax= 1.50D-03  0.00D+00 EMaxC= 1.00D-01 BMatC= 9.48D-04 BMatP= 1.04D-03
 IDIUse=3 WtCom= 9.85D-01 WtEn= 1.50D-02
 Coeff-Com: -0.129D-01 0.492D+00 0.521D+00
 Coeff-En:   0.000D+00 0.483D+00 0.517D+00
 Coeff:     -0.127D-01 0.492D+00 0.521D+00
 Gap=     0.251 Goal=   None    Shift=    0.000
 Gap=     0.105 Goal=   None    Shift=    0.000
 RMSDP=1.38D-04 MaxDP=5.77D-03 DE=-1.64D-05 OVMax= 6.96D-03

 Cycle   4  Pass 1  IDiag  1:
 RMSU=  9.34D-05    CP:  9.00D-01  9.92D-01  7.95D-01
 E= -330.866304009934     Delta-E=       -0.000226004043 Rises=F Damp=F
 DIIS: error= 2.25D-04 at cycle   4 NSaved=   4.
 NSaved= 4 IEnMin= 4 EnMin= -330.866304009934     IErMin= 4 ErrMin= 2.25D-04
 ErrMax= 2.25D-04  0.00D+00 EMaxC= 1.00D-01 BMatC= 1.40D-05 BMatP= 9.48D-04
 IDIUse=3 WtCom= 9.98D-01 WtEn= 2.25D-03
 Coeff-Com: -0.629D-02 0.104D+00 0.164D+00 0.738D+00
 Coeff-En:   0.000D+00 0.000D+00 0.000D+00 0.100D+01
 Coeff:     -0.628D-02 0.104D+00 0.164D+00 0.738D+00
 Gap=     0.250 Goal=   None    Shift=    0.000
 Gap=     0.105 Goal=   None    Shift=    0.000
 RMSDP=3.71D-05 MaxDP=1.92D-03 DE=-2.26D-04 OVMax= 1.96D-03

 Cycle   5  Pass 1  IDiag  1:
 RMSU=  2.85D-05    CP:  9.00D-01  9.93D-01  7.34D-01  9.01D-01
 E= -330.866306347306     Delta-E=       -0.000002337372 Rises=F Damp=F
 DIIS: error= 2.51D-04 at cycle   5 NSaved=   5.
 NSaved= 5 IEnMin= 5 EnMin= -330.866306347306     IErMin= 4 ErrMin= 2.25D-04
 ErrMax= 2.51D-04  0.00D+00 EMaxC= 1.00D-01 BMatC= 6.87D-06 BMatP= 1.40D-05
 IDIUse=3 WtCom= 9.97D-01 WtEn= 2.51D-03
 Coeff-Com: -0.376D-02 0.391D-01 0.757D-01 0.456D+00 0.433D+00
 Coeff-En:   0.000D+00 0.000D+00 0.000D+00 0.269D+00 0.731D+00
 Coeff:     -0.375D-02 0.390D-01 0.755D-01 0.455D+00 0.434D+00
 Gap=     0.250 Goal=   None    Shift=    0.000
 Gap=     0.105 Goal=   None    Shift=    0.000
 RMSDP=1.23D-05 MaxDP=3.74D-04 DE=-2.34D-06 OVMax= 1.38D-03

 Cycle   6  Pass 1  IDiag  1:
 RMSU=  1.11D-05    CP:  9.00D-01  9.94D-01  7.34D-01  8.78D-01  8.55D-01
 E= -330.866308440548     Delta-E=       -0.000002093242 Rises=F Damp=F
 DIIS: error= 6.79D-05 at cycle   6 NSaved=   6.
 NSaved= 6 IEnMin= 6 EnMin= -330.866308440548     IErMin= 6 ErrMin= 6.79D-05
 ErrMax= 6.79D-05  0.00D+00 EMaxC= 1.00D-01 BMatC= 6.36D-07 BMatP= 6.87D-06
 IDIUse=1 WtCom= 1.00D+00 WtEn= 0.00D+00
 Coeff-Com:  0.548D-03-0.167D-01-0.172D-01-0.265D-01 0.189D+00 0.871D+00
 Coeff:      0.548D-03-0.167D-01-0.172D-01-0.265D-01 0.189D+00 0.871D+00
 Gap=     0.250 Goal=   None    Shift=    0.000
 Gap=     0.105 Goal=   None    Shift=    0.000
 RMSDP=8.40D-06 MaxDP=3.49D-04 DE=-2.09D-06 OVMax= 6.41D-04

 Cycle   7  Pass 1  IDiag  1:
 RMSU=  5.81D-06    CP:  9.00D-01  9.94D-01  7.42D-01  8.92D-01  9.91D-01
                    CP:  1.20D+00
 E= -330.866308831936     Delta-E=       -0.000000391388 Rises=F Damp=F
 DIIS: error= 1.69D-05 at cycle   7 NSaved=   7.
 NSaved= 7 IEnMin= 7 EnMin= -330.866308831936     IErMin= 7 ErrMin= 1.69D-05
 ErrMax= 1.69D-05  0.00D+00 EMaxC= 1.00D-01 BMatC= 9.61D-08 BMatP= 6.36D-07
 IDIUse=1 WtCom= 1.00D+00 WtEn= 0.00D+00
 Coeff-Com:  0.102D-02-0.144D-01-0.232D-01-0.113D+00-0.177D-01 0.282D+00
 Coeff-Com:  0.886D+00
 Coeff:      0.102D-02-0.144D-01-0.232D-01-0.113D+00-0.177D-01 0.282D+00
 Coeff:      0.886D+00
 Gap=     0.250 Goal=   None    Shift=    0.000
 Gap=     0.105 Goal=   None    Shift=    0.000
 RMSDP=4.45D-06 MaxDP=1.95D-04 DE=-3.91D-07 OVMax= 3.79D-04

 Cycle   8  Pass 1  IDiag  1:
 RMSU=  2.44D-06    CP:  9.00D-01  9.94D-01  7.40D-01  9.05D-01  1.08D+00
                    CP:  1.40D+00  1.13D+00
 E= -330.866308923900     Delta-E=       -0.000000091964 Rises=F Damp=F
 DIIS: error= 9.80D-06 at cycle   8 NSaved=   8.
 NSaved= 8 IEnMin= 8 EnMin= -330.866308923900     IErMin= 8 ErrMin= 9.80D-06
 ErrMax= 9.80D-06  0.00D+00 EMaxC= 1.00D-01 BMatC= 1.61D-08 BMatP= 9.61D-08
 IDIUse=1 WtCom= 1.00D+00 WtEn= 0.00D+00
 Coeff-Com:  0.226D-05 0.209D-02 0.125D-03-0.135D-01-0.382D-01-0.181D+00
 Coeff-Com:  0.187D+00 0.104D+01
 Coeff:      0.226D-05 0.209D-02 0.125D-03-0.135D-01-0.382D-01-0.181D+00
 Coeff:      0.187D+00 0.104D+01
 Gap=     0.250 Goal=   None    Shift=    0.000
 Gap=     0.105 Goal=   None    Shift=    0.000
 RMSDP=2.05D-06 MaxDP=6.46D-05 DE=-9.20D-08 OVMax= 1.69D-04

 Cycle   9  Pass 1  IDiag  1:
 RMSU=  5.18D-07    CP:  9.00D-01  9.94D-01  7.41D-01  9.08D-01  1.11D+00
                    CP:  1.49D+00  1.35D+00  1.26D+00
 E= -330.866308938734     Delta-E=       -0.000000014834 Rises=F Damp=F
 DIIS: error= 3.34D-06 at cycle   9 NSaved=   9.
 NSaved= 9 IEnMin= 9 EnMin= -330.866308938734     IErMin= 9 ErrMin= 3.34D-06
 ErrMax= 3.34D-06  0.00D+00 EMaxC= 1.00D-01 BMatC= 2.60D-09 BMatP= 1.61D-08
 IDIUse=1 WtCom= 1.00D+00 WtEn= 0.00D+00
 Coeff-Com: -0.250D-04 0.139D-02 0.826D-03-0.155D-02-0.164D-01-0.955D-01
 Coeff-Com:  0.385D-01 0.489D+00 0.584D+00
 Coeff:     -0.250D-04 0.139D-02 0.826D-03-0.155D-02-0.164D-01-0.955D-01
 Coeff:      0.385D-01 0.489D+00 0.584D+00
 Gap=     0.250 Goal=   None    Shift=    0.000
 Gap=     0.105 Goal=   None    Shift=    0.000
 RMSDP=4.34D-07 MaxDP=2.35D-05 DE=-1.48D-08 OVMax= 1.90D-05

 Cycle  10  Pass 1  IDiag  1:
 RMSU=  2.56D-07    CP:  9.00D-01  9.94D-01  7.41D-01  9.07D-01  1.11D+00
                    CP:  1.51D+00  1.39D+00  1.24D+00  1.00D+00
 E= -330.866308939443     Delta-E=       -0.000000000710 Rises=F Damp=F
 DIIS: error= 1.96D-06 at cycle  10 NSaved=  10.
 NSaved=10 IEnMin=10 EnMin= -330.866308939443     IErMin=10 ErrMin= 1.96D-06
 ErrMax= 1.96D-06  0.00D+00 EMaxC= 1.00D-01 BMatC= 7.64D-10 BMatP= 2.60D-09
 IDIUse=1 WtCom= 1.00D+00 WtEn= 0.00D+00
 Coeff-Com: -0.253D-04 0.108D-03 0.586D-03 0.480D-02 0.447D-02 0.147D-01
 Coeff-Com: -0.441D-01-0.125D+00 0.328D+00 0.816D+00
 Coeff:     -0.253D-04 0.108D-03 0.586D-03 0.480D-02 0.447D-02 0.147D-01
 Coeff:     -0.441D-01-0.125D+00 0.328D+00 0.816D+00
 Gap=     0.250 Goal=   None    Shift=    0.000
 Gap=     0.105 Goal=   None    Shift=    0.000
 RMSDP=2.58D-07 MaxDP=1.03D-05 DE=-7.10D-10 OVMax= 1.23D-05

 Cycle  11  Pass 1  IDiag  1:
 RMSU=  1.17D-07    CP:  9.00D-01  9.94D-01  7.41D-01  9.08D-01  1.11D+00
                    CP:  1.51D+00  1.39D+00  1.29D+00  1.21D+00  9.81D-01
 E= -330.866308939783     Delta-E=       -0.000000000340 Rises=F Damp=F
 DIIS: error= 1.14D-06 at cycle  11 NSaved=  11.
 NSaved=11 IEnMin=11 EnMin= -330.866308939783     IErMin=11 ErrMin= 1.14D-06
 ErrMax= 1.14D-06  0.00D+00 EMaxC= 1.00D-01 BMatC= 7.28D-11 BMatP= 7.64D-10
 IDIUse=1 WtCom= 1.00D+00 WtEn= 0.00D+00
 Coeff-Com:  0.470D-05-0.296D-03-0.169D-03 0.527D-03 0.188D-02 0.208D-01
 Coeff-Com: -0.108D-01-0.105D+00-0.690D-01 0.641D-02 0.116D+01
 Coeff:      0.470D-05-0.296D-03-0.169D-03 0.527D-03 0.188D-02 0.208D-01
 Coeff:     -0.108D-01-0.105D+00-0.690D-01 0.641D-02 0.116D+01
 Gap=     0.250 Goal=   None    Shift=    0.000
 Gap=     0.105 Goal=   None    Shift=    0.000
 RMSDP=1.56D-07 MaxDP=6.69D-06 DE=-3.40D-10 OVMax= 1.05D-05

 Cycle  12  Pass 1  IDiag  1:
 RMSU=  5.53D-08    CP:  9.00D-01  9.94D-01  7.41D-01  9.09D-01  1.11D+00
                    CP:  1.52D+00  1.40D+00  1.31D+00  1.31D+00  1.12D+00
                    CP:  1.65D+00
 E= -330.866308939875     Delta-E=       -0.000000000091 Rises=F Damp=F
 DIIS: error= 6.26D-07 at cycle  12 NSaved=  12.
 NSaved=12 IEnMin=12 EnMin= -330.866308939875     IErMin=12 ErrMin= 6.26D-07
 ErrMax= 6.26D-07  0.00D+00 EMaxC= 1.00D-01 BMatC= 1.79D-11 BMatP= 7.28D-11
 IDIUse=1 WtCom= 1.00D+00 WtEn= 0.00D+00
 Coeff-Com:  0.471D-05-0.906D-04-0.107D-03-0.290D-03-0.321D-03 0.481D-02
 Coeff-Com:  0.251D-02-0.121D-01-0.541D-01-0.124D+00 0.289D+00 0.895D+00
 Coeff:      0.471D-05-0.906D-04-0.107D-03-0.290D-03-0.321D-03 0.481D-02
 Coeff:      0.251D-02-0.121D-01-0.541D-01-0.124D+00 0.289D+00 0.895D+00
 Gap=     0.250 Goal=   None    Shift=    0.000
 Gap=     0.105 Goal=   None    Shift=    0.000
 RMSDP=6.03D-08 MaxDP=2.68D-06 DE=-9.13D-11 OVMax= 4.98D-06

 Cycle  13  Pass 1  IDiag  1:
 RMSU=  2.05D-08    CP:  9.00D-01  9.94D-01  7.41D-01  9.09D-01  1.11D+00
                    CP:  1.52D+00  1.40D+00  1.32D+00  1.34D+00  1.17D+00
                    CP:  1.95D+00  1.35D+00
 E= -330.866308939892     Delta-E=       -0.000000000017 Rises=F Damp=F
 DIIS: error= 2.63D-07 at cycle  13 NSaved=  13.
 NSaved=13 IEnMin=13 EnMin= -330.866308939892     IErMin=13 ErrMin= 2.63D-07
 ErrMax= 2.63D-07  0.00D+00 EMaxC= 1.00D-01 BMatC= 6.28D-12 BMatP= 1.79D-11
 IDIUse=1 WtCom= 1.00D+00 WtEn= 0.00D+00
 Coeff-Com:  0.766D-06 0.393D-04-0.141D-04-0.344D-03-0.104D-02-0.375D-02
 Coeff-Com:  0.366D-02 0.244D-01-0.324D-02-0.575D-01-0.211D+00 0.393D+00
 Coeff-Com:  0.856D+00
 Coeff:      0.766D-06 0.393D-04-0.141D-04-0.344D-03-0.104D-02-0.375D-02
 Coeff:      0.366D-02 0.244D-01-0.324D-02-0.575D-01-0.211D+00 0.393D+00
 Coeff:      0.856D+00
 Gap=     0.250 Goal=   None    Shift=    0.000
 Gap=     0.105 Goal=   None    Shift=    0.000
 RMSDP=4.45D-08 MaxDP=1.88D-06 DE=-1.71D-11 OVMax= 2.92D-06

 Cycle  14  Pass 1  IDiag  1:
 RMSU=  1.00D-08    CP:  9.00D-01  9.94D-01  7.41D-01  9.09D-01  1.11D+00
                    CP:  1.52D+00  1.40D+00  1.32D+00  1.36D+00  1.19D+00
                    CP:  2.14D+00  1.64D+00  1.50D+00
 E= -330.866308939898     Delta-E=       -0.000000000006 Rises=F Damp=F
 DIIS: error= 1.30D-07 at cycle  14 NSaved=  14.
 NSaved=14 IEnMin=14 EnMin= -330.866308939898     IErMin=14 ErrMin= 1.30D-07
 ErrMax= 1.30D-07  0.00D+00 EMaxC= 1.00D-01 BMatC= 6.81D-13 BMatP= 6.28D-12
 IDIUse=1 WtCom= 1.00D+00 WtEn= 0.00D+00
 Coeff-Com: -0.121D-05 0.232D-04 0.288D-04 0.143D-03 0.632D-04-0.734D-03
 Coeff-Com: -0.109D-02 0.147D-02 0.107D-01 0.410D-01-0.714D-01-0.242D+00
 Coeff-Com: -0.187D-01 0.128D+01
 Coeff:     -0.121D-05 0.232D-04 0.288D-04 0.143D-03 0.632D-04-0.734D-03
[...]
    R5        2.04958   0.00005   0.00000   0.00014   0.00014   2.04972
    R6        2.68641  -0.00001   0.00000   0.00004   0.00004   2.68645
    R7        2.43791   0.00010   0.00000   0.00014   0.00014   2.43805
    R8        2.57783   0.00014   0.00000   0.00026   0.00026   2.57808
    R9        2.04958   0.00005   0.00000   0.00014   0.00014   2.04972
   R10        2.68864  -0.00015   0.00000  -0.00044  -0.00044   2.68820
   R11        2.04890  -0.00000   0.00000  -0.00001  -0.00001   2.04890
   R12        2.05187   0.00002   0.00000   0.00007   0.00007   2.05194
    A1        2.08892   0.00001   0.00000  -0.00004  -0.00004   2.08888
    A2        2.10732  -0.00003   0.00000  -0.00031  -0.00031   2.10701
    A3        2.08695   0.00003   0.00000   0.00035   0.00035   2.08729
    A4        2.05258   0.00002   0.00000   0.00007   0.00007   2.05265
    A5        2.15213   0.00005   0.00000   0.00043   0.00043   2.15256
    A6        2.07847  -0.00007   0.00000  -0.00050  -0.00050   2.07797
    A7        2.16061  -0.00008   0.00000  -0.00024  -0.00024   2.16037
    A8        2.06129   0.00004   0.00000   0.00012   0.00012   2.06141
    A9        2.06129   0.00004   0.00000   0.00012   0.00012   2.06141
   A10        2.05258   0.00002   0.00000   0.00007   0.00007   2.05265
   A11        2.07847  -0.00007   0.00000  -0.00050  -0.00050   2.07797
   A12        2.15213   0.00005   0.00000   0.00043   0.00043   2.15256
   A13        2.08892   0.00001   0.00000  -0.00004  -0.00004   2.08888
   A14        2.10732  -0.00003   0.00000  -0.00031  -0.00031   2.10701
   A15        2.08695   0.00003   0.00000   0.00035   0.00035   2.08729
   A16        2.12275   0.00003   0.00000   0.00018   0.00018   2.12293
   A17        2.08022  -0.00002   0.00000  -0.00009  -0.00009   2.08013
   A18        2.08022  -0.00002   0.00000  -0.00009  -0.00009   2.08013
    D1        0.00000  -0.00000   0.00000  -0.00000  -0.00000   0.00000
    D2        3.14159   0.00000   0.00000   0.00000   0.00000   3.14159
    D3        3.14159   0.00000   0.00000   0.00000   0.00000   3.14159
    D4       -0.00000   0.00000   0.00000   0.00000   0.00000   0.00000
    D5       -0.00000   0.00000   0.00000   0.00000   0.00000   0.00000
    D6        3.14159   0.00000   0.00000   0.00000   0.00000   3.14159
    D7       -3.14159  -0.00000   0.00000  -0.00000  -0.00000   3.14159
    D8        0.00000  -0.00000   0.00000  -0.00000  -0.00000   0.00000
    D9       -0.00000  -0.00000   0.00000   0.00000   0.00000   0.00000
   D10        3.14159   0.00000   0.00000   0.00000   0.00000   3.14159
   D11       -3.14159  -0.00000   0.00000  -0.00000  -0.00000   3.14159
   D12       -0.00000   0.00000   0.00000   0.00000   0.00000   0.00000
   D13       -0.00000   0.00000   0.00000   0.00000   0.00000   0.00000
   D14        3.14159   0.00000   0.00000   0.00000   0.00000   3.14159
   D15       -3.14159  -0.00000   0.00000  -0.00000  -0.00000   3.14159
   D16        0.00000  -0.00000   0.00000  -0.00000  -0.00000   0.00000
   D17        0.00000  -0.00000   0.00000  -0.00000  -0.00000   0.00000
   D18       -3.14159  -0.00000   0.00000  -0.00000  -0.00000   3.14159
   D19       -3.14159  -0.00000   0.00000  -0.00000  -0.00000   3.14159
   D20        0.00000  -0.00000   0.00000  -0.00000  -0.00000   0.00000
   D21       -0.00000   0.00000   0.00000   0.00000   0.00000   0.00000
   D22        3.14159   0.00000   0.00000   0.00000   0.00000   3.14159
   D23        3.14159   0.00000   0.00000   0.00000   0.00000   3.14159
   D24       -0.00000   0.00000   0.00000   0.00000   0.00000   0.00000
         Item               Value     Threshold  Converged?
 Maximum Force            0.000154     0.000450     YES
 RMS     Force            0.000049     0.000300     YES
 Maximum Displacement     0.000534     0.001800     YES
 RMS     Displacement     0.000176     0.001200     YES
 Predicted change in Energy=-2.128394D-07
 Optimization completed.
    -- Stationary point found.
                           ----------------------------
                           !   Optimized Parameters   !
                           ! (Angstroms and Degrees)  !
 --------------------------                            --------------------------
 ! Name  Definition              Value          Derivative Info.                !
 --------------------------------------------------------------------------------
 ! R1    R(1,2)                  1.3641         -DE/DX =    0.0001              !
 ! R2    R(1,6)                  1.4228         -DE/DX =   -0.0002              !
 ! R3    R(1,7)                  1.0842         -DE/DX =    0.0                 !
 ! R4    R(2,3)                  1.4216         -DE/DX =    0.0                 !
 ! R5    R(2,8)                  1.0846         -DE/DX =    0.0                 !
 ! R6    R(3,4)                  1.4216         -DE/DX =    0.0                 !
 ! R7    R(3,12)                 1.2901         -DE/DX =    0.0001              !
 ! R8    R(4,5)                  1.3641         -DE/DX =    0.0001              !
 ! R9    R(4,9)                  1.0846         -DE/DX =    0.0                 !
 ! R10   R(5,6)                  1.4228         -DE/DX =   -0.0002              !
 ! R11   R(5,10)                 1.0842         -DE/DX =    0.0                 !
 ! R12   R(6,11)                 1.0858         -DE/DX =    0.0                 !
 ! A1    A(2,1,6)              119.6863         -DE/DX =    0.0                 !
 ! A2    A(2,1,7)              120.7405         -DE/DX =    0.0                 !
 ! A3    A(6,1,7)              119.5732         -DE/DX =    0.0                 !
 ! A4    A(1,2,3)              117.6044         -DE/DX =    0.0                 !
 ! A5    A(1,2,8)              123.3078         -DE/DX =    0.0001              !
 ! A6    A(3,2,8)              119.0878         -DE/DX =   -0.0001              !
 ! A7    A(2,3,4)              123.794          -DE/DX =   -0.0001              !
 ! A8    A(2,3,12)             118.103          -DE/DX =    0.0                 !
 ! A9    A(4,3,12)             118.103          -DE/DX =    0.0                 !
 ! A10   A(3,4,5)              117.6044         -DE/DX =    0.0                 !
 ! A11   A(3,4,9)              119.0878         -DE/DX =   -0.0001              !
 ! A12   A(5,4,9)              123.3078         -DE/DX =    0.0001              !
 ! A13   A(4,5,6)              119.6863         -DE/DX =    0.0                 !
 ! A14   A(4,5,10)             120.7405         -DE/DX =    0.0                 !
 ! A15   A(6,5,10)             119.5732         -DE/DX =    0.0                 !
 ! A16   A(1,6,5)              121.6246         -DE/DX =    0.0                 !
 ! A17   A(1,6,11)             119.1877         -DE/DX =    0.0                 !
 ! A18   A(5,6,11)             119.1877         -DE/DX =    0.0                 !
 ! D1    D(6,1,2,3)              0.0            -DE/DX =    0.0                 !
 ! D2    D(6,1,2,8)            180.0            -DE/DX =    0.0                 !
 ! D3    D(7,1,2,3)            180.0            -DE/DX =    0.0                 !
 ! D4    D(7,1,2,8)              0.0            -DE/DX =    0.0                 !
 ! D5    D(2,1,6,5)              0.0            -DE/DX =    0.0                 !
 ! D6    D(2,1,6,11)           180.0            -DE/DX =    0.0                 !
 ! D7    D(7,1,6,5)            180.0            -DE/DX =    0.0                 !
 ! D8    D(7,1,6,11)             0.0            -DE/DX =    0.0                 !
 ! D9    D(1,2,3,4)              0.0            -DE/DX =    0.0                 !
 ! D10   D(1,2,3,12)           180.0            -DE/DX =    0.0                 !
 ! D11   D(8,2,3,4)            180.0            -DE/DX =    0.0                 !
 ! D12   D(8,2,3,12)             0.0            -DE/DX =    0.0                 !
 ! D13   D(2,3,4,5)              0.0            -DE/DX =    0.0                 !
 ! D14   D(2,3,4,9)            180.0            -DE/DX =    0.0                 !
 ! D15   D(12,3,4,5)           180.0            -DE/DX =    0.0                 !
 ! D16   D(12,3,4,9)             0.0            -DE/DX =    0.0                 !
 ! D17   D(3,4,5,6)              0.0            -DE/DX =    0.0                 !
 ! D18   D(3,4,5,10)           180.0            -DE/DX =    0.0                 !
 ! D19   D(9,4,5,6)            180.0            -DE/DX =    0.0                 !
 ! D20   D(9,4,5,10)             0.0            -DE/DX =    0.0                 !
 ! D21   D(4,5,6,1)              0.0            -DE/DX =    0.0                 !
 ! D22   D(4,5,6,11)           180.0            -DE/DX =    0.0                 !
 ! D23   D(10,5,6,1)           180.0            -DE/DX =    0.0                 !
 ! D24   D(10,5,6,11)            0.0            -DE/DX =    0.0                 !
 --------------------------------------------------------------------------------
 GradGradGradGradGradGradGradGradGradGradGradGradGradGradGradGradGradGrad

 Leave Link  103 at Wed Jan 29 15:41:03 2025, MaxMem=   104857600 cpu:               0.0 elap:               0.0
 (Enter /sw/cluster/pub/apps//g16/l9999.exe)

 ----------------------------------------------------------------------

 Electric dipole moment (input orientation):
 (Debye = 10**-18 statcoulomb cm , SI units = C m)
                  (au)            (Debye)         (10**-30 SI)
   Tot        0.289688D+00      0.736313D+00      0.245607D+01
   x          0.000000D+00      0.000000D+00      0.000000D+00
   y          0.289688D+00      0.736313D+00      0.245607D+01
   z          0.000000D+00      0.000000D+00      0.000000D+00

 Dipole polarizability, Alpha (input orientation).
 (esu units = cm**3 , SI units = C**2 m**2 J**-1)
 Alpha(0;0):
               (au)            (10**-24 esu)      (10**-40 SI)
   iso        0.600051D+02      0.889184D+01      0.989350D+01
   aniso      0.441085D+02      0.653621D+01      0.727252D+01
   xx         0.665187D+02      0.985705D+01      0.109674D+02
   yx         0.000000D+00      0.000000D+00      0.000000D+00
   yy         0.815818D+02      0.120892D+02      0.134510D+02
   zx         0.000000D+00      0.000000D+00      0.000000D+00
   zy         0.000000D+00      0.000000D+00      0.000000D+00
   zz         0.319148D+02      0.472929D+01      0.526205D+01

 ----------------------------------------------------------------------

 Dipole orientation:
     6          2.34725678          0.00000004          1.27466511
     6          2.36968909         -0.00000004         -1.30306400
     6          0.00000000         -0.00000008         -2.56851902
     6         -2.36968909         -0.00000003         -1.30306400
     6         -2.34725678          0.00000002          1.27466511
     6         -0.00000000          0.00000007          2.58584141
     1          4.09909059          0.00000005          2.33724721
     1          4.09231619         -0.00000006         -2.41361513
     1         -4.09231619         -0.00000004         -2.41361514
     1         -4.09909059          0.00000003          2.33724721
     1         -0.00000000          0.00000012          4.63770711
     9          0.00000000         -0.00000010         -5.00643016

 Electric dipole moment (dipole orientation):
 (Debye = 10**-18 statcoulomb cm , SI units = C m)
                  (au)            (Debye)         (10**-30 SI)
   Tot        0.289688D+00      0.736313D+00      0.245607D+01
   x          0.000000D+00      0.000000D+00      0.000000D+00
   y          0.000000D+00      0.000000D+00      0.000000D+00
   z          0.289688D+00      0.736313D+00      0.245607D+01

 Dipole polarizability, Alpha (dipole orientation).
 (esu units = cm**3 , SI units = C**2 m**2 J**-1)
 Alpha(0;0):
               (au)            (10**-24 esu)      (10**-40 SI)
   iso        0.600051D+02      0.889184D+01      0.989350D+01
   aniso      0.441085D+02      0.653621D+01      0.727252D+01
   xx         0.665187D+02      0.985705D+01      0.109674D+02
   yx         0.000000D+00      0.000000D+00      0.000000D+00
   yy         0.319148D+02      0.472929D+01      0.526205D+01
   zx         0.000000D+00      0.000000D+00      0.000000D+00
   zy         0.000000D+00      0.000000D+00      0.000000D+00
   zz         0.815818D+02      0.120892D+02      0.134510D+02

 ----------------------------------------------------------------------
 1\1\GINC-N02\Freq\UPBE1PBE\6-311++G(d,p)\C6H5F1(1+,2)\UNKNOWN\29-Jan-2
 025\0\\#P Geom=AllCheck Guess=TCheck SCRF=Check GenChk UPBE1PBE/6-311+
 +G(d,p) Freq\\MFB SP\\1,2\C,1.2421147969,0.6745237287,-0.000000006\C,1
 .2539854649,-0.6895517745,0.0000000076\C,0.,-1.3592017288,0.0000000096
 \C,-1.2539854649,-0.6895517746,-0.0000000015\C,-1.2421147969,0.6745237
 287,0.0000000025\C,0.,1.3683683465,-0.0000000057\H,2.169145327,1.23681
 79598,0.0000000026\H,2.1655604679,-1.2772301252,0.0000000024\H,-2.1655
 604679,-1.2772301252,-0.0000000073\H,-2.169145327,1.2368179598,0.00000
 00134\H,0.,2.4541689155,-0.0000000095\F,0.,-2.6492887479,-0.00000001\\
 Version=ES64L-G16RevA.03\HF=-330.8667801\S2=0.766018\S2-1=0.\S2A=0.750
 094\RMSD=1.386e-09\RMSF=8.497e-05\ZeroPoint=0.0914452\Thermal=0.096966
 3\Dipole=0.,1.1058827,0.\DipoleDeriv=-0.0790646,0.37416,0.,0.3471559,-
 0.2265674,0.,0.,0.,-0.034428,-0.1474613,-0.3803851,0.,-0.2358664,-0.13
 02734,0.,0.,0.,-0.0369431,0.5965508,0.0000001,0.,0.,1.8832883,0.,0.,0.
 ,0.3279183,-0.1474612,0.3803848,0.,0.2358664,-0.1302735,0.,0.,0.,-0.03
 69431,-0.0790647,-0.3741597,0.,-0.3471559,-0.2265675,0.,0.,0.,-0.03442
 8,0.397461,0.,0.,0.,0.5194207,0.,0.,0.,0.1136525,0.1048825,0.0042026,0
 .,0.0138306,0.1248172,0.,0.,0.,0.1547088,0.1469736,-0.0130256,0.,-0.02
 69401,0.1230839,0.,0.,0.,0.1647926,0.1469736,0.0130256,0.,0.0269401,0.
 1230839,0.,0.,0.,0.1647926,0.1048825,-0.0042026,0.,-0.0138306,0.124817
 2,0.,0.,0.,0.1547088,0.1049109,0.,0.,0.,0.1288503,0.,0.,0.,0.1257852,-
 0.1495831,0.,0.,0.,-1.3136798,0.,0.,0.,-0.0636168\Polar=66.5186813,0.0
 000001,81.5817702,0.,0.,31.914842\Quadrupole=4.42517,2.5013452,-6.9265
 152,0.,0.,0.\PG=CS [SG(C2H1F1),X(C4H4)]\NImag=0\\0.68061929,0.07875802
 ,0.73228406,0.,0.,0.11616289,-0.10762284,-0.00178751,0.,0.68215590,-0.
 00896766,-0.44858791,0.,-0.07207535,0.77647753,0.,0.,-0.04676316,0.,0.
 ,0.11150078,-0.01233798,0.00412011,0.,-0.24370740,-0.00463647,0.,0.542
 08017,-0.04037237,-0.01908268,0.,-0.08025654,-0.13193654,0.,-0.0000000
 1,0.73384632,0.,0.,-0.00474550,0.,0.,-0.06340281,0.,0.,0.15971396,-0.0
 0769632,0.01090621,0.,-0.04635145,-0.01794562,0.,-0.24370740,0.0802565
 6,0.,0.68215591,0.01634817,-0.02342274,0.,0.01794560,0.05320530,0.,0.0
 0463650,-0.13193654,0.,0.07207535,0.77647755,0.,0.,0.00787332,0.,0.,0.
 00557461,0.,0.,-0.06340281,0.,0.,0.11150078,-0.05227865,0.02126435,0.,
 -0.00769632,-0.01634816,0.,-0.01233799,0.04037235,0.,-0.10762284,0.008
 96766,0.,0.68061929,-0.02126434,0.06863191,0.,-0.01090622,-0.02342272,
 0.,-0.00412013,-0.01908269,0.,0.00178752,-0.44858790,0.,-0.07875803,0.
 73228404,0.,0.,-0.00157647,0.,0.,0.00787332,0.,0.,-0.00474550,0.,0.,-0
 .04676316,0.,0.,0.11616289,-0.23382231,0.00258731,0.,-0.01474051,0.025
 71006,0.,0.08312640,0.,0.,-0.01474051,-0.02571009,0.,-0.23382230,-0.00
 258730,0.,0.51790625,0.08986563,-0.15601650,0.,0.04052738,-0.02317477,
 0.,0.,-0.01166320,0.,-0.04052738,-0.02317477,0.,-0.08986563,-0.1560165
 0,0.,0.,0.70822995,0.,0.,-0.05412717,0.,0.,-0.00257968,0.,0.,-0.004785
 36,0.,0.,-0.00257968,0.,0.,-0.05412717,0.,0.,0.13584699,-0.27402007,-0
 .12998367,0.,0.00771306,0.00405658,0.,-0.00205161,0.00128696,0.,0.0013
 2678,-0.00026333,0.,-0.00284214,0.00299079,0.,-0.01518283,-0.01440474,
 0.,0.28343430,-0.13105871,-0.13721241,0.,-0.02661081,-0.01082007,0.,0.
 00128247,-0.00471172,0.,0.00019841,-0.00058899,0.,0.00360688,-0.001715
 35,0.,0.01725437,0.01212525,0.,0.13647347,0.14190835,0.,0.,-0.04095010
 ,0.,0.,0.00736792,0.,0.,0.01169132,0.,0.,-0.00256209,0.,0.,0.00426935,
 0.,0.,0.00210464,0.,0.,0.02619543,0.00899487,-0.00445684,0.,-0.2689581
 1,0.13230387,0.,-0.01638437,0.01597355,0.,-0.00275556,-0.00325092,0.,0
 .00115115,0.00078025,0.,-0.00168855,-0.00160016,0.,0.00064446,0.000064
 08,0.,0.27688302,0.02536603,-0.00817800,0.,0.13448683,-0.14219953,0.,-
 0.01715558,0.01203153,0.,-0.00339461,-0.00231720,0.,-0.00020917,-0.000
 62844,0.,-0.00044080,-0.00577796,0.,-0.00004759,0.00101687,0.,-0.14097
 631,0.14447491,0.,0.,0.00740118,0.,0.,-0.03692900,0.,0.,0.00273868,0.,
 0.,0.00301080,0.,0.,-0.00203635,0.,0.,0.01008672,0.,0.,-0.00547365,0.,
 0.,0.02417049,0.00115115,-0.00078024,0.,-0.00275556,0.00325092,0.,-0.0
 1638437,-0.01597355,0.,-0.26895811,-0.13230387,0.,0.00899487,0.0044568
 4,0.,-0.00168855,0.00160016,0.,0.00004115,-0.00007597,0.,-0.00062475,-
 0.00070134,0.,0.27688302,0.00020916,-0.00062843,0.,0.00339461,-0.00231
 720,0.,0.01715557,0.01203153,0.,-0.13448683,-0.14219953,0.,-0.02536604
 ,-0.00817800,0.,0.00044081,-0.00577796,0.,-0.00007258,0.00005189,0.,0.
 00070134,0.00065498,0.,0.14097631,0.14447491,0.,0.,-0.00203635,0.,0.,0
 .00301080,0.,0.,0.00273869,0.,0.,-0.03692900,0.,0.,0.00740118,0.,0.,0.
 01008672,0.,0.,-0.00018092,0.,0.,0.00115612,0.,0.,0.02417049,-0.002842
 14,-0.00299079,0.,0.00132678,0.00026333,0.,-0.00205161,-0.00128696,0.,
 0.00771306,-0.00405658,0.,-0.27402007,0.12998367,0.,-0.01518284,0.0144
 0474,0.,-0.00066008,0.00073561,0.,0.00004115,0.00007258,0.,0.00064446,
 0.00004759,0.,0.28343430,-0.00360689,-0.00171535,0.,-0.00019840,-0.000
 58899,0.,-0.00128248,-0.00471173,0.,0.02661081,-0.01082007,0.,0.131058
 71,-0.13721241,0.,-0.01725436,0.01212525,0.,-0.00073561,0.00055709,0.,
 0.00007597,0.00005189,0.,-0.00006408,0.00101687,0.,-0.13647347,0.14190
 835,0.,0.,0.00426935,0.,0.,-0.00256209,0.,0.,0.01169132,0.,0.,0.007367
 92,0.,0.,-0.04095010,0.,0.,0.00210464,0.,0.,0.00075952,0.,0.,-0.000180
 92,0.,0.,-0.00547365,0.,0.,0.02619543,0.00495721,0.02716491,0.,-0.0051
 8379,0.00276708,0.,-0.00104035,0.,0.,-0.00518379,-0.00276708,0.,0.0049
 5721,-0.02716491,0.,-0.06059767,0.,0.,0.00083879,-0.00023660,0.,0.0003
 2495,0.00126004,0.,0.00032495,-0.00126004,0.,0.00083879,0.00023660,0.,
 0.05948756,-0.00253943,-0.00728010,0.,0.00244831,0.00039986,0.,0.,-0.0
 0021026,0.,-0.00244831,0.00039986,0.,0.00253943,-0.00728010,0.,0.,-0.3
 5145970,0.,0.00001475,0.00062126,0.,-0.00025552,-0.00028055,0.,0.00025
 552,-0.00028055,0.,-0.00001475,0.00062126,0.,0.,0.36408758,0.,0.,0.010
 57642,0.,0.,0.00388963,0.,0.,-0.00100411,0.,0.,0.00388963,0.,0.,0.0105
 7642,0.,0.,-0.04185608,0.,0.,-0.00157038,0.,0.,-0.00159780,0.,0.,-0.00
 159780,0.,0.,-0.00157038,0.,0.,0.01968845,-0.00510220,-0.00480185,0.,0
 .00582023,-0.04837859,0.,-0.07520349,0.,0.,0.00582023,0.04837858,0.,-0
 .00510220,0.00480185,0.,-0.00956659,0.,0.,0.00075820,-0.00163321,0.,0.
 00237174,0.00173992,0.,0.00237174,-0.00173992,0.,0.00075820,0.00163321
 ,0.,0.00027614,0.,0.,0.07679800,-0.00273762,0.00120815,0.,-0.00696792,
 -0.04703498,0.,0.,-0.43457403,0.,0.00696790,-0.04703498,0.,0.00273763,
 0.00120815,0.,0.,0.00058090,0.,0.00068499,-0.00123216,0.,0.00064070,0.
 00115147,0.,-0.00064070,0.00115147,0.,-0.00068499,-0.00123216,0.,0.,0.
 00066143,0.,0.,0.52514676,0.,0.,0.00391559,0.,0.,0.01301969,0.,0.,-0.0
 4648787,0.,0.,0.01301969,0.,0.,0.00391559,0.,0.,-0.00017457,0.,0.,-0.0
 0165105,0.,0.,-0.00234627,0.,0.,-0.00234627,0.,0.,-0.00165105,0.,0.,0.
 00057602,0.,0.,0.02021051\\0.00016378,-0.00025862,0.,0.00002748,-0.000
 00251,0.,0.,0.00002781,0.,-0.00002748,-0.00000251,0.,-0.00016378,-0.00
 025862,0.,0.,0.00021615,0.,-0.00001389,0.00002516,0.,-0.00000858,0.000
 07543,0.,0.00000858,0.00007543,0.,0.00001389,0.00002516,0.,0.,-0.00002
 193,0.,0.,0.00009907,0.\\\@


 LOVE IS BLIND, THAT'S WHY ALL THE WORLD LOVES A LOUVER.
 Job cpu time:       0 days  0 hours  5 minutes 22.1 seconds.
 Elapsed time:       0 days  0 hours  5 minutes 22.8 seconds.
 File lengths (MBytes):  RWF=     93 Int=      0 D2E=      0 Chk=      5 Scr=      1
 Normal termination of Gaussian 16 at Wed Jan 29 15:41:03 2025.
