 Entering Gaussian System, Link 0=g16
 Initial command:
 /sw/cluster/pub/apps//g16/l1.exe "/data/natrosa/28455/Gau-2876.inp" -scrdir="/data/natrosa/28455/"
 Entering Link 1 = /sw/cluster/pub/apps//g16/l1.exe PID=      2877.
  
 Copyright (c) 1988,1990,1992,1993,1995,1998,2003,2009,2016,
            Gaussian, Inc.  All Rights Reserved.
  
 This is part of the Gaussian(R) 16 program.  It is based on
 the Gaussian(R) 09 system (copyright 2009, Gaussian, Inc.),
 the Gaussian(R) 03 system (copyright 2003, Gaussian, Inc.),
 the Gaussian(R) 98 system (copyright 1998, Gaussian, Inc.),
 the Gaussian(R) 94 system (copyright 1995, Gaussian, Inc.),
 the Gaussian 92(TM) system (copyright 1992, Gaussian, Inc.),
 the Gaussian 90(TM) system (copyright 1990, Gaussian, Inc.),
 the Gaussian 88(TM) system (copyright 1988, Gaussian, Inc.),
 the Gaussian 86(TM) system (copyright 1986, Carnegie Mellon
 University), and the Gaussian 82(TM) system (copyright 1983,
 Carnegie Mellon University). Gaussian is a federally registered
 trademark of Gaussian, Inc.
  
 This software contains proprietary and confidential information,
 including trade secrets, belonging to Gaussian, Inc.
  
 This software is provided under written license and may be
 used, copied, transmitted, or stored only in accord with that
 written license.
  
 The following legend is applicable only to US Government
 contracts under FAR:
  
                    RESTRICTED RIGHTS LEGEND
  
 Use, reproduction and disclosure by the US Government is
 subject to restrictions as set forth in subparagraphs (a)
 and (c) of the Commercial Computer Software - Restricted
 Rights clause in FAR 52.227-19.
  
 Gaussian, Inc.
 340 Quinnipiac St., Bldg. 40, Wallingford CT 06492
  
  
 ---------------------------------------------------------------
 Warning -- This program may not be used in any manner that
 competes with the business of Gaussian, Inc. or will provide
 assistance to any competitor of Gaussian, Inc.  The licensee
 of this program is prohibited from giving any competitor of
 Gaussian, Inc. access to this program.  By using this program,
 the user acknowledges that Gaussian, Inc. is engaged in the
 business of creating and licensing software in the field of
 computational chemistry and represents and warrants to the
 licensee that it is not a competitor of Gaussian, Inc. and that
 it will not use this program in any manner prohibited above.
 ---------------------------------------------------------------
  

 Cite this work as:
 Gaussian 16, Revision A.03,
 M. J. Frisch, G. W. Trucks, H. B. Schlegel, G. E. Scuseria, 
 M. A. Robb, J. R. Cheeseman, G. Scalmani, V. Barone, 
 G. A. Petersson, H. Nakatsuji, X. Li, M. Caricato, A. V. Marenich, 
 J. Bloino, B. G. Janesko, R. Gomperts, B. Mennucci, H. P. Hratchian, 
 J. V. Ortiz, A. F. Izmaylov, J. L. Sonnenberg, D. Williams-Young, 
 F. Ding, F. Lipparini, F. Egidi, J. Goings, B. Peng, A. Petrone, 
 T. Henderson, D. Ranasinghe, V. G. Zakrzewski, J. Gao, N. Rega, 
 G. Zheng, W. Liang, M. Hada, M. Ehara, K. Toyota, R. Fukuda, 
 J. Hasegawa, M. Ishida, T. Nakajima, Y. Honda, O. Kitao, H. Nakai, 
 T. Vreven, K. Throssell, J. A. Montgomery, Jr., J. E. Peralta, 
 F. Ogliaro, M. J. Bearpark, J. J. Heyd, E. N. Brothers, K. N. Kudin, 
 V. N. Staroverov, T. A. Keith, R. Kobayashi, J. Normand, 
 K. Raghavachari, A. P. Rendell, J. C. Burant, S. S. Iyengar, 
 J. Tomasi, M. Cossi, J. M. Millam, M. Klene, C. Adamo, R. Cammi, 
 J. W. Ochterski, R. L. Martin, K. Morokuma, O. Farkas, 
 J. B. Foresman, and D. J. Fox, Gaussian, Inc., Wallingford CT, 2016.
 
 ******************************************
 Gaussian 16:  ES64L-G16RevA.03 25-Dec-2016
                29-Jan-2025 
 ******************************************
 %chk=MFB-ANI.chk
 --------------------------------------------------------
 #p opt freq PBE1PBE/6-311++G(d,p) density=current nosymm
 --------------------------------------------------------
 1/18=20,19=15,26=3,38=1/1,3;
 2/9=110,12=2,15=1,17=6,18=5,40=1/2;
 3/5=4,6=6,7=1111,11=2,25=1,30=1,71=1,74=-13/1,2,3;
 4//1;
 5/5=2,38=5/2;
 6/7=2,8=2,9=2,10=2,22=-1,28=1/1;
 7/30=1/1,2,3,16;
 1/18=20,19=15,26=3/3(2);
 2/9=110,15=1/2;
 99//99;
 2/9=110,15=1/2;
 3/5=4,6=6,7=1111,11=2,25=1,30=1,71=1,74=-13/1,2,3;
 4/5=5,16=3,69=1/1;
 5/5=2,38=5/2;
 7/30=1/1,2,3,16;
 1/18=20,19=15,26=3/3(-5);
 2/9=110,15=1/2;
 6/7=2,8=2,9=2,10=2,19=2,22=-1,28=1/1;
 99/9=1/99;
 Leave Link    1 at Wed Jan 29 15:33:14 2025, MaxMem=           0 cpu:               0.0 elap:               0.0
 (Enter /sw/cluster/pub/apps//g16/l101.exe)
 ------
 MFB SP
 ------
 Symbolic Z-matrix:
 Charge = -1 Multiplicity = 2
 C                     1.20309   0.69143  0. 
 C                     1.21239  -0.69942   0. 
 C                     0.       -1.36453  0. 
 C                    -1.21239  -0.69942   0. 
 C                    -1.20309   0.69143  0. 
 C                     0.        1.38929   0. 
 H                     2.14496   1.22993   0. 
 H                     2.13714  -1.26472  0. 
 H                    -2.13714  -1.26472  0. 
 H                    -2.14496   1.22993   0. 
 H                     0.        2.47376   0. 
 F                     0.       -2.70979   0. 
 
 ITRead=  0  0  0  0  0  0  0  0  0  0  0  0
 MicOpt= -1 -1 -1 -1 -1 -1 -1 -1 -1 -1 -1 -1
 NAtoms=     12 NQM=       12 NQMF=       0 NMMI=      0 NMMIF=      0
                NMic=       0 NMicF=      0.
                    Isotopes and Nuclear Properties:
 (Nuclear quadrupole moments (NQMom) in fm**2, nuclear magnetic moments (NMagM)
  in nuclear magnetons)

  Atom         1           2           3           4           5           6           7           8           9          10
 IAtWgt=          12          12          12          12          12          12           1           1           1           1
 AtmWgt=  12.0000000  12.0000000  12.0000000  12.0000000  12.0000000  12.0000000   1.0078250   1.0078250   1.0078250   1.0078250
 NucSpn=           0           0           0           0           0           0           1           1           1           1
 AtZEff=  -0.0000000  -0.0000000  -0.0000000  -0.0000000  -0.0000000  -0.0000000  -0.0000000  -0.0000000  -0.0000000  -0.0000000
 NQMom=    0.0000000   0.0000000   0.0000000   0.0000000   0.0000000   0.0000000   0.0000000   0.0000000   0.0000000   0.0000000
 NMagM=    0.0000000   0.0000000   0.0000000   0.0000000   0.0000000   0.0000000   2.7928460   2.7928460   2.7928460   2.7928460
 AtZNuc=   6.0000000   6.0000000   6.0000000   6.0000000   6.0000000   6.0000000   1.0000000   1.0000000   1.0000000   1.0000000

  Atom        11          12
 IAtWgt=           1          19
 AtmWgt=   1.0078250  18.9984032
 NucSpn=           1           1
 AtZEff=  -0.0000000  -0.0000000
 NQMom=    0.0000000   0.0000000
 NMagM=    2.7928460   2.6288670
 AtZNuc=   1.0000000   9.0000000
 Leave Link  101 at Wed Jan 29 15:33:15 2025, MaxMem=   104857600 cpu:               0.0 elap:               0.0
 (Enter /sw/cluster/pub/apps//g16/l103.exe)

 GradGradGradGradGradGradGradGradGradGradGradGradGradGradGradGradGradGrad
 Berny optimization.
 Initialization pass.
                           ----------------------------
                           !    Initial Parameters    !
                           ! (Angstroms and Degrees)  !
 --------------------------                            --------------------------
 ! Name  Definition              Value          Derivative Info.                !
 --------------------------------------------------------------------------------
 ! R1    R(1,2)                  1.3909         estimate D2E/DX2                !
 ! R2    R(1,6)                  1.3908         estimate D2E/DX2                !
 ! R3    R(1,7)                  1.0849         estimate D2E/DX2                !
 ! R4    R(2,3)                  1.3828         estimate D2E/DX2                !
 ! R5    R(2,8)                  1.0838         estimate D2E/DX2                !
 ! R6    R(3,4)                  1.3828         estimate D2E/DX2                !
 ! R7    R(3,12)                 1.3453         estimate D2E/DX2                !
 ! R8    R(4,5)                  1.3909         estimate D2E/DX2                !
 ! R9    R(4,9)                  1.0838         estimate D2E/DX2                !
 ! R10   R(5,6)                  1.3908         estimate D2E/DX2                !
 ! R11   R(5,10)                 1.0849         estimate D2E/DX2                !
 ! R12   R(6,11)                 1.0845         estimate D2E/DX2                !
 ! A1    A(2,1,6)              120.4993         estimate D2E/DX2                !
 ! A2    A(2,1,7)              119.3749         estimate D2E/DX2                !
 ! A3    A(6,1,7)              120.1258         estimate D2E/DX2                !
 ! A4    A(1,2,3)              118.3658         estimate D2E/DX2                !
 ! A5    A(1,2,8)              121.8206         estimate D2E/DX2                !
 ! A6    A(3,2,8)              119.8136         estimate D2E/DX2                !
 ! A7    A(2,3,4)              122.5022         estimate D2E/DX2                !
 ! A8    A(2,3,12)             118.7489         estimate D2E/DX2                !
 ! A9    A(4,3,12)             118.7489         estimate D2E/DX2                !
 ! A10   A(3,4,5)              118.3658         estimate D2E/DX2                !
 ! A11   A(3,4,9)              119.8136         estimate D2E/DX2                !
 ! A12   A(5,4,9)              121.8206         estimate D2E/DX2                !
 ! A13   A(4,5,6)              120.4993         estimate D2E/DX2                !
 ! A14   A(4,5,10)             119.3749         estimate D2E/DX2                !
 ! A15   A(6,5,10)             120.1258         estimate D2E/DX2                !
 ! A16   A(1,6,5)              119.7676         estimate D2E/DX2                !
 ! A17   A(1,6,11)             120.1162         estimate D2E/DX2                !
 ! A18   A(5,6,11)             120.1162         estimate D2E/DX2                !
 ! D1    D(6,1,2,3)              0.0            estimate D2E/DX2                !
 ! D2    D(6,1,2,8)            180.0            estimate D2E/DX2                !
 ! D3    D(7,1,2,3)            180.0            estimate D2E/DX2                !
 ! D4    D(7,1,2,8)              0.0            estimate D2E/DX2                !
 ! D5    D(2,1,6,5)              0.0            estimate D2E/DX2                !
 ! D6    D(2,1,6,11)           180.0            estimate D2E/DX2                !
 ! D7    D(7,1,6,5)            180.0            estimate D2E/DX2                !
 ! D8    D(7,1,6,11)             0.0            estimate D2E/DX2                !
 ! D9    D(1,2,3,4)              0.0            estimate D2E/DX2                !
 ! D10   D(1,2,3,12)           180.0            estimate D2E/DX2                !
 ! D11   D(8,2,3,4)            180.0            estimate D2E/DX2                !
 ! D12   D(8,2,3,12)             0.0            estimate D2E/DX2                !
 ! D13   D(2,3,4,5)              0.0            estimate D2E/DX2                !
 ! D14   D(2,3,4,9)            180.0            estimate D2E/DX2                !
 ! D15   D(12,3,4,5)           180.0            estimate D2E/DX2                !
 ! D16   D(12,3,4,9)             0.0            estimate D2E/DX2                !
 ! D17   D(3,4,5,6)              0.0            estimate D2E/DX2                !
 ! D18   D(3,4,5,10)           180.0            estimate D2E/DX2                !
 ! D19   D(9,4,5,6)            180.0            estimate D2E/DX2                !
 ! D20   D(9,4,5,10)             0.0            estimate D2E/DX2                !
 ! D21   D(4,5,6,1)              0.0            estimate D2E/DX2                !
 ! D22   D(4,5,6,11)           180.0            estimate D2E/DX2                !
 ! D23   D(10,5,6,1)           180.0            estimate D2E/DX2                !
 ! D24   D(10,5,6,11)            0.0            estimate D2E/DX2                !
 --------------------------------------------------------------------------------
 Trust Radius=3.00D-01 FncErr=1.00D-07 GrdErr=1.00D-06 EigMax=2.50D+02 EigMin=1.00D-04
 Number of steps in this run=     64 maximum allowed number of steps=    100.
 GradGradGradGradGradGradGradGradGradGradGradGradGradGradGradGradGradGrad

 Leave Link  103 at Wed Jan 29 15:33:15 2025, MaxMem=   104857600 cpu:               0.0 elap:               0.0
 (Enter /sw/cluster/pub/apps//g16/l202.exe)
                          Input orientation:                          
 ---------------------------------------------------------------------
 Center     Atomic      Atomic             Coordinates (Angstroms)
 Number     Number       Type             X           Y           Z
 ---------------------------------------------------------------------
      1          6           0        1.203089    0.691434   -0.000000
      2          6           0        1.212388   -0.699424    0.000000
      3          6           0        0.000000   -1.364533   -0.000000
      4          6           0       -1.212388   -0.699424    0.000000
      5          6           0       -1.203089    0.691434   -0.000000
      6          6           0        0.000000    1.389295    0.000000
      7          1           0        2.144955    1.229929    0.000000
      8          1           0        2.137136   -1.264724   -0.000000
      9          1           0       -2.137136   -1.264724   -0.000000
     10          1           0       -2.144955    1.229929    0.000000
     11          1           0        0.000000    2.473760    0.000000
     12          9           0        0.000000   -2.709786    0.000000
 ---------------------------------------------------------------------
                    Distance matrix (angstroms):
                    1          2          3          4          5
     1  C    0.000000
     2  C    1.390889   0.000000
     3  C    2.382105   1.382843   0.000000
     4  C    2.787295   2.424777   1.382843   0.000000
     5  C    2.406178   2.787295   2.382105   1.390889   0.000000
     6  C    1.390839   2.415084   2.753828   2.415084   1.390839
     7  H    1.084937   2.142915   3.366314   3.872229   3.391073
     8  H    2.167717   1.083846   2.139465   3.396892   3.870872
     9  H    3.870872   3.396892   2.139465   1.083846   2.167717
    10  H    3.391073   3.872229   3.366314   2.142915   1.084937
    11  H    2.150374   3.396907   3.838293   3.396907   2.150374
    12  F    3.607731   2.347646   1.345253   2.347646   3.607731
                    6          7          8          9         10
     6  C    0.000000
     7  H    2.150867   0.000000
     8  H    3.407516   2.494665   0.000000
     9  H    3.407516   4.955764   4.274272   0.000000
    10  H    2.150867   4.289910   4.955764   2.494665   0.000000
    11  H    1.084465   2.479505   4.306229   4.306229   2.479505
    12  F    4.099081   4.485776   2.579836   2.579836   4.485776
                   11         12
    11  H    0.000000
    12  F    5.183546   0.000000
 Symmetry turned off by external request.
 Stoichiometry    C6H5F(1-,2)
 Framework group  C2V[C2(HCCF),SGV(C4H4)]
 Deg. of freedom    11
 Full point group                 C2V     NOp   4
 Rotational constants (GHZ):           5.7108041           2.5822658           1.7782093
 Leave Link  202 at Wed Jan 29 15:33:15 2025, MaxMem=   104857600 cpu:               0.0 elap:               0.0
 (Enter /sw/cluster/pub/apps//g16/l301.exe)
 Standard basis: 6-311++G(d,p) (5D, 7F)
 Ernie: Thresh=  0.10000D-02 Tol=  0.10000D-05 Strict=F.
   189 basis functions,   297 primitive gaussians,   196 cartesian basis functions
    26 alpha electrons       25 beta electrons
       nuclear repulsion energy       270.0364945340 Hartrees.
 IExCor= 1009 DFT=T Ex+Corr=PBE1PBE ExCW=0 ScaHFX=  0.250000
 ScaDFX=  0.750000  0.750000  1.000000  1.000000 ScalE2=  1.000000  1.000000
 IRadAn=      5 IRanWt=     -1 IRanGd=            0 ICorTp=0 IEmpDi=  4
 NAtoms=   12 NActive=   12 NUniq=   12 SFac= 1.00D+00 NAtFMM=   60 NAOKFM=F Big=F
 Integral buffers will be    131072 words long.
 Raffenetti 2 integral format.
 Two-electron integral symmetry is turned off.
 Leave Link  301 at Wed Jan 29 15:33:15 2025, MaxMem=   104857600 cpu:               0.0 elap:               0.0
 (Enter /sw/cluster/pub/apps//g16/l302.exe)
 NPDir=0 NMtPBC=     1 NCelOv=     1 NCel=       1 NClECP=     1 NCelD=      1
         NCelK=      1 NCelE2=     1 NClLst=     1 CellRange=     0.0.
 One-electron integrals computed using PRISM.
 NBasis=   189 RedAO= T EigKep=  1.59D-06  NBF=   189
 NBsUse=   189 1.00D-06 EigRej= -1.00D+00 NBFU=   189
 Precomputing XC quadrature grid using
 IXCGrd= 4 IRadAn=           5 IRanWt=          -1 IRanGd=           0 AccXCQ= 0.00D+00.
 Generated NRdTot=       0 NPtTot=           0 NUsed=           0 NTot=          32
 NSgBfM=   196   196   196   196   196 MxSgAt=    12 MxSgA2=    12.
 Leave Link  302 at Wed Jan 29 15:33:15 2025, MaxMem=   104857600 cpu:               0.1 elap:               0.1
 (Enter /sw/cluster/pub/apps//g16/l303.exe)
 DipDrv:  MaxL=1.
 Leave Link  303 at Wed Jan 29 15:33:15 2025, MaxMem=   104857600 cpu:               0.0 elap:               0.0
 (Enter /sw/cluster/pub/apps//g16/l401.exe)
 ExpMin= 3.60D-02 ExpMax= 1.14D+04 ExpMxC= 1.72D+03 IAcc=3 IRadAn=         5 AccDes= 0.00D+00
 Harris functional with IExCor= 1009 and IRadAn=       5 diagonalized for initial guess.
 HarFok:  IExCor= 1009 AccDes= 0.00D+00 IRadAn=         5 IDoV= 1 UseB2=F ITyADJ=14
 ICtDFT=  3500011 ScaDFX=  1.000000  1.000000  1.000000  1.000000
 FoFCou: FMM=F IPFlag=           0 FMFlag=      100000 FMFlg1=           0
         NFxFlg=           0 DoJE=T BraDBF=F KetDBF=T FulRan=T
         wScrn=  0.000000 ICntrl=       500 IOpCl=  0 I1Cent=   200000004 NGrid=           0
         NMat0=    1 NMatS0=      1 NMatT0=    0 NMatD0=    1 NMtDS0=    0 NMtDT0=    0
 Symmetry not used in FoFCou.
 Harris En= -331.450836152238    
 JPrj=0 DoOrth=F DoCkMO=F.
 Initial guess <Sx>= 0.0000 <Sy>= 0.0000 <Sz>= 0.5000 <S**2>= 0.7500 S= 0.5000
 Leave Link  401 at Wed Jan 29 15:33:16 2025, MaxMem=   104857600 cpu:               1.2 elap:               1.1
 (Enter /sw/cluster/pub/apps//g16/l502.exe)
 Two-electron integral symmetry not used.
 UHF open shell SCF:
 Using DIIS extrapolation, IDIIS=  1040.
 NGot=   104857600 LenX=   104778092 LenY=   104739235
 Requested convergence on RMS density matrix=1.00D-08 within 128 cycles.
 Requested convergence on MAX density matrix=1.00D-06.
 Requested convergence on             energy=1.00D-06.
 No special actions if energy rises.
 Fock matrices will be formed incrementally for  20 cycles.

 Cycle   1  Pass 1  IDiag  1:
 FoFJK:  IHMeth= 1 ICntrl=       0 DoSepK=F KAlg= 0 I1Cent=           0 FoldK=F
 IRaf= 980000000 NMat=       1 IRICut=       1 DoRegI=T DoRafI=F ISym2E= 0 IDoP0=0 IntGTp=1.
 FoFCou: FMM=F IPFlag=           0 FMFlag=      100000 FMFlg1=           0
         NFxFlg=           0 DoJE=F BraDBF=F KetDBF=F FulRan=T
         wScrn=  0.000000 ICntrl=         0 IOpCl=  1 I1Cent=           0 NGrid=           0
         NMat0=    1 NMatS0=      1 NMatT0=    0 NMatD0=    1 NMtDS0=    0 NMtDT0=    0
 Symmetry not used in FoFCou.
 E= -330.838816478942    
 DIIS: error= 6.18D-02 at cycle   1 NSaved=   1.
 NSaved= 1 IEnMin= 1 EnMin= -330.838816478942     IErMin= 1 ErrMin= 6.18D-02
 ErrMax= 6.18D-02  0.00D+00 EMaxC= 1.00D-01 BMatC= 1.19D+00 BMatP= 1.19D+00
 IDIUse=3 WtCom= 3.82D-01 WtEn= 6.18D-01
 Coeff-Com:  0.100D+01
 Coeff-En:   0.100D+01
 Coeff:      0.100D+01
 Gap=     0.041 Goal=   None    Shift=    0.000
 Gap=     0.316 Goal=   None    Shift=    0.000
 GapD=    0.041 DampG=0.250 DampE=0.500 DampFc=0.2500 IDamp=-1.
 Damping current iteration by 2.50D-01
 RMSDP=8.69D+00 MaxDP=5.50D+02              OVMax= 9.96D-01

 Cycle   2  Pass 1  IDiag  1:
 RMSU=  2.13D+00    CP:  3.00D+00
 E= -330.966027663273     Delta-E=       -0.127211184331 Rises=F Damp=T
 DIIS: error= 2.71D-02 at cycle   2 NSaved=   2.
 NSaved= 2 IEnMin= 2 EnMin= -330.966027663273     IErMin= 2 ErrMin= 2.71D-02
 ErrMax= 2.71D-02  0.00D+00 EMaxC= 1.00D-01 BMatC= 2.28D-01 BMatP= 1.19D+00
 IDIUse=3 WtCom= 7.29D-01 WtEn= 2.71D-01
 Coeff-Com: -0.597D+00 0.160D+01
 Coeff-En:   0.000D+00 0.100D+01
 Coeff:     -0.436D+00 0.144D+01
 Gap=     0.007 Goal=   None    Shift=    0.000
 Gap=     0.167 Goal=   None    Shift=    0.000
 RMSDP=5.93D-01 MaxDP=3.93D+01 DE=-1.27D-01 OVMax= 2.81D-01

 Cycle   3  Pass 1  IDiag  1:
 RMSU=  5.85D-01    CP:  3.00D+00  9.53D-01
 E= -331.157023869512     Delta-E=       -0.190996206239 Rises=F Damp=F
 DIIS: error= 1.45D-02 at cycle   3 NSaved=   3.
 NSaved= 3 IEnMin= 3 EnMin= -331.157023869512     IErMin= 3 ErrMin= 1.45D-02
 ErrMax= 1.45D-02  0.00D+00 EMaxC= 1.00D-01 BMatC= 6.46D-02 BMatP= 2.28D-01
 IDIUse=3 WtCom= 8.55D-01 WtEn= 1.45D-01
 Coeff-Com: -0.509D-01 0.415D+00 0.636D+00
 Coeff-En:   0.000D+00 0.000D+00 0.100D+01
 Coeff:     -0.435D-01 0.354D+00 0.689D+00
 Gap=     0.019 Goal=   None    Shift=    0.000
 Gap=     0.242 Goal=   None    Shift=    0.000
 RMSDP=5.14D-01 MaxDP=2.64D+01 DE=-1.91D-01 OVMax= 8.18D-02

 Cycle   4  Pass 1  IDiag  1:
 RMSU=  6.54D-02    CP:  3.00D+00  7.18D-01  8.29D-01
 E= -331.172656806614     Delta-E=       -0.015632937101 Rises=F Damp=F
 DIIS: error= 9.15D-03 at cycle   4 NSaved=   4.
 NSaved= 4 IEnMin= 4 EnMin= -331.172656806614     IErMin= 4 ErrMin= 9.15D-03
 ErrMax= 9.15D-03  0.00D+00 EMaxC= 1.00D-01 BMatC= 1.55D-02 BMatP= 6.46D-02
 IDIUse=3 WtCom= 9.08D-01 WtEn= 9.15D-02
 Coeff-Com:  0.805D-01-0.364D-01 0.383D+00 0.573D+00
 Coeff-En:   0.000D+00 0.000D+00 0.000D+00 0.100D+01
 Coeff:      0.731D-01-0.330D-01 0.348D+00 0.612D+00
 Gap=     0.036 Goal=   None    Shift=    0.000
 Gap=     0.244 Goal=   None    Shift=    0.000
 RMSDP=8.65D-01 MaxDP=5.75D+01 DE=-1.56D-02 OVMax= 1.13D-01

 Cycle   5  Pass 1  IDiag  1:
 RMSU=  7.62D-02    CP:  3.00D+00  3.14D-01  7.28D-01  3.74D-01
 E= -331.176243946192     Delta-E=       -0.003587139578 Rises=F Damp=F
 DIIS: error= 4.76D-03 at cycle   5 NSaved=   5.
 NSaved= 5 IEnMin= 5 EnMin= -331.176243946192     IErMin= 5 ErrMin= 4.76D-03
 ErrMax= 4.76D-03  0.00D+00 EMaxC= 1.00D-01 BMatC= 2.82D-03 BMatP= 1.55D-02
 IDIUse=3 WtCom= 9.52D-01 WtEn= 4.76D-02
 Coeff-Com:  0.278D-01-0.403D-01 0.658D-01 0.325D+00 0.621D+00
 Coeff-En:   0.000D+00 0.000D+00 0.000D+00 0.140D+00 0.860D+00
 Coeff:      0.265D-01-0.383D-01 0.626D-01 0.317D+00 0.633D+00
 Gap=     0.025 Goal=   None    Shift=    0.000
 Gap=     0.244 Goal=   None    Shift=    0.000
 RMSDP=2.77D-01 MaxDP=1.46D+01 DE=-3.59D-03 OVMax= 2.13D-02

 Cycle   6  Pass 1  IDiag  1:
 RMSU=  1.71D-02    CP:  3.00D+00  1.87D-01  6.27D-01  6.35D-01  1.25D+00
 E= -331.177142086451     Delta-E=       -0.000898140259 Rises=F Damp=F
 DIIS: error= 1.23D-03 at cycle   6 NSaved=   6.
 NSaved= 6 IEnMin= 6 EnMin= -331.177142086451     IErMin= 6 ErrMin= 1.23D-03
 ErrMax= 1.23D-03  0.00D+00 EMaxC= 1.00D-01 BMatC= 4.67D-04 BMatP= 2.82D-03
 IDIUse=3 WtCom= 9.88D-01 WtEn= 1.23D-02
 Coeff-Com: -0.790D-03-0.826D-03-0.671D-02 0.106D+00 0.363D+00 0.539D+00
 Coeff-En:   0.000D+00 0.000D+00 0.000D+00 0.000D+00 0.000D+00 0.100D+01
 Coeff:     -0.781D-03-0.816D-03-0.663D-02 0.105D+00 0.358D+00 0.545D+00
 Gap=     0.025 Goal=   None    Shift=    0.000
 Gap=     0.244 Goal=   None    Shift=    0.000
 RMSDP=1.82D-01 MaxDP=9.69D+00 DE=-8.98D-04 OVMax= 2.64D-02

 Cycle   7  Pass 1  IDiag  1:
 RMSU=  5.69D-03    CP:  3.00D+00  1.06D-01  5.40D-01  6.72D-01  1.55D+00
                    CP:  1.88D+00
 E= -331.177319564992     Delta-E=       -0.000177478541 Rises=F Damp=F
 DIIS: error= 3.79D-04 at cycle   7 NSaved=   7.
 NSaved= 7 IEnMin= 7 EnMin= -331.177319564992     IErMin= 7 ErrMin= 3.79D-04
 ErrMax= 3.79D-04  0.00D+00 EMaxC= 1.00D-01 BMatC= 3.71D-05 BMatP= 4.67D-04
 IDIUse=3 WtCom= 9.96D-01 WtEn= 3.79D-03
 Coeff-Com: -0.711D-02 0.114D-01-0.970D-02-0.488D-01-0.854D-01 0.131D+00
 Coeff-Com:  0.101D+01
 Coeff-En:   0.000D+00 0.000D+00 0.000D+00 0.000D+00 0.000D+00 0.000D+00
 Coeff-En:   0.100D+01
 Coeff:     -0.708D-02 0.114D-01-0.967D-02-0.486D-01-0.851D-01 0.131D+00
 Coeff:      0.101D+01
 Gap=     0.025 Goal=   None    Shift=    0.000
 Gap=     0.244 Goal=   None    Shift=    0.000
 RMSDP=1.91D-01 MaxDP=9.93D+00 DE=-1.77D-04 OVMax= 3.27D-02

 Cycle   8  Pass 1  IDiag  1:
 RMSU=  4.27D-02    CP:  1.72D+00  4.21D-02  3.81D-01  4.58D-01  1.63D+00
                    CP:  3.00D+00  3.00D+00
 E= -331.177404705384     Delta-E=       -0.000085140392 Rises=F Damp=F
 DIIS: error= 1.33D-04 at cycle   8 NSaved=   8.
 NSaved= 8 IEnMin= 8 EnMin= -331.177404705384     IErMin= 8 ErrMin= 1.33D-04
 ErrMax= 1.33D-04  0.00D+00 EMaxC= 1.00D-01 BMatC= 6.59D-06 BMatP= 3.71D-05
 IDIUse=3 WtCom= 9.99D-01 WtEn= 1.33D-03
 Coeff-Com: -0.407D-03 0.118D-02-0.202D-02-0.219D-01-0.735D-01-0.559D-01
 Coeff-Com:  0.867D-01 0.107D+01
 Coeff-En:   0.000D+00 0.000D+00 0.000D+00 0.000D+00 0.000D+00 0.000D+00
 Coeff-En:   0.000D+00 0.100D+01
 Coeff:     -0.406D-03 0.118D-02-0.202D-02-0.219D-01-0.734D-01-0.559D-01
 Coeff:      0.866D-01 0.107D+01
 Gap=     0.025 Goal=   None    Shift=    0.000
 Gap=     0.244 Goal=   None    Shift=    0.000
 RMSDP=9.58D-02 MaxDP=5.45D+00 DE=-8.51D-05 OVMax= 2.35D-02

 Cycle   9  Pass 1  IDiag  1:
 RMSU=  1.36D-02    CP:  1.16D+00  1.73D-02  2.67D-01  3.56D-01  1.77D+00
                    CP:  3.00D+00  3.00D+00  1.74D+00
 E= -331.177436442953     Delta-E=       -0.000031737569 Rises=F Damp=F
 DIIS: error= 1.06D-04 at cycle   9 NSaved=   9.
 NSaved= 9 IEnMin= 9 EnMin= -331.177436442953     IErMin= 9 ErrMin= 1.06D-04
 ErrMax= 1.06D-04  0.00D+00 EMaxC= 1.00D-01 BMatC= 2.97D-06 BMatP= 6.59D-06
 IDIUse=3 WtCom= 9.99D-01 WtEn= 1.06D-03
 Coeff-Com:  0.126D-02-0.168D-02 0.767D-03-0.589D-03-0.223D-01-0.570D-01
 Coeff-Com: -0.181D+00 0.564D+00 0.697D+00
 Coeff-En:   0.000D+00 0.000D+00 0.000D+00 0.000D+00 0.000D+00 0.000D+00
 Coeff-En:   0.000D+00 0.000D+00 0.100D+01
 Coeff:      0.126D-02-0.168D-02 0.766D-03-0.588D-03-0.223D-01-0.569D-01
 Coeff:     -0.181D+00 0.563D+00 0.697D+00
 Gap=     0.025 Goal=   None    Shift=    0.000
 Gap=     0.244 Goal=   None    Shift=    0.000
 RMSDP=3.61D-02 MaxDP=2.66D+00 DE=-3.17D-05 OVMax= 1.18D-02

 Cycle  10  Pass 1  IDiag  1:
 RMSU=  1.08D-03    CP:  1.03D+00  1.01D-02  2.18D-01  3.33D-01  1.87D+00
                    CP:  3.00D+00  3.00D+00  1.99D+00  1.49D+00
 E= -331.177445293709     Delta-E=       -0.000008850756 Rises=F Damp=F
 DIIS: error= 3.06D-05 at cycle  10 NSaved=  10.
 NSaved=10 IEnMin=10 EnMin= -331.177445293709     IErMin=10 ErrMin= 3.06D-05
 ErrMax= 3.06D-05  0.00D+00 EMaxC= 1.00D-01 BMatC= 4.89D-07 BMatP= 2.97D-06
 IDIUse=1 WtCom= 1.00D+00 WtEn= 0.00D+00
 Coeff-Com: -0.103D-03-0.163D-03 0.110D-03 0.606D-02 0.190D-01 0.200D-01
 Coeff-Com: -0.558D-02-0.362D+00 0.412D-01 0.128D+01
 Coeff:     -0.103D-03-0.163D-03 0.110D-03 0.606D-02 0.190D-01 0.200D-01
 Coeff:     -0.558D-02-0.362D+00 0.412D-01 0.128D+01
 Gap=     0.025 Goal=   None    Shift=    0.000
 Gap=     0.245 Goal=   None    Shift=    0.000
 RMSDP=2.18D-02 MaxDP=1.83D+00 DE=-8.85D-06 OVMax= 1.05D-02

 Cycle  11  Pass 1  IDiag  1:
 RMSU=  8.68D-04    CP:  9.89D-01  6.49D-03  1.88D-01  3.24D-01  1.94D+00
                    CP:  3.00D+00  3.00D+00  2.13D+00  1.85D+00  2.50D+00
 E= -331.177449033204     Delta-E=       -0.000003739495 Rises=F Damp=F
 DIIS: error= 2.49D-05 at cycle  11 NSaved=  11.
 NSaved=11 IEnMin=11 EnMin= -331.177449033204     IErMin=11 ErrMin= 2.49D-05
 ErrMax= 2.49D-05  0.00D+00 EMaxC= 1.00D-01 BMatC= 8.59D-08 BMatP= 4.89D-07
 IDIUse=1 WtCom= 1.00D+00 WtEn= 0.00D+00
 Coeff-Com: -0.330D-03 0.526D-03 0.183D-03-0.367D-03-0.366D-03 0.923D-02
 Coeff-Com:  0.338D-01-0.802D-01-0.128D+00-0.147D+00 0.131D+01
 Coeff:     -0.330D-03 0.526D-03 0.183D-03-0.367D-03-0.366D-03 0.923D-02
 Coeff:      0.338D-01-0.802D-01-0.128D+00-0.147D+00 0.131D+01
 Gap=     0.025 Goal=   None    Shift=    0.000
 Gap=     0.245 Goal=   None    Shift=    0.000
 RMSDP=7.23D-03 MaxDP=6.24D-01 DE=-3.74D-06 OVMax= 4.78D-03

 Cycle  12  Pass 1  IDiag  1:
 RMSU=  3.63D-04    CP:  9.79D-01  5.45D-03  1.78D-01  3.21D-01  1.97D+00
                    CP:  3.00D+00  3.00D+00  2.17D+00  1.97D+00  3.00D+00
                    CP:  1.80D+00
 E= -331.177449557005     Delta-E=       -0.000000523801 Rises=F Damp=F
 DIIS: error= 4.83D-06 at cycle  12 NSaved=  12.
 NSaved=12 IEnMin=12 EnMin= -331.177449557005     IErMin=12 ErrMin= 4.83D-06
 ErrMax= 4.83D-06  0.00D+00 EMaxC= 1.00D-01 BMatC= 9.22D-09 BMatP= 8.59D-08
 IDIUse=1 WtCom= 1.00D+00 WtEn= 0.00D+00
 Coeff-Com: -0.438D-05 0.200D-04-0.354D-04-0.704D-03-0.196D-02 0.918D-04
 Coeff-Com:  0.749D-02 0.253D-01-0.128D-01-0.164D+00 0.216D+00 0.931D+00
 Coeff:     -0.438D-05 0.200D-04-0.354D-04-0.704D-03-0.196D-02 0.918D-04
 Coeff:      0.749D-02 0.253D-01-0.128D-01-0.164D+00 0.216D+00 0.931D+00
 Gap=     0.025 Goal=   None    Shift=    0.000
 Gap=     0.245 Goal=   None    Shift=    0.000
 RMSDP=7.72D-04 MaxDP=6.85D-02 DE=-5.24D-07 OVMax= 5.51D-04

 Cycle  13  Pass 1  IDiag  1:
 RMSU=  1.48D-04    CP:  9.80D-01  5.55D-03  1.79D-01  3.20D-01  1.97D+00
                    CP:  3.00D+00  3.00D+00  2.17D+00  1.96D+00  3.00D+00
                    CP:  2.07D+00  1.25D+00
 E= -331.177449573940     Delta-E=       -0.000000016935 Rises=F Damp=F
 DIIS: error= 4.51D-06 at cycle  13 NSaved=  13.
 NSaved=13 IEnMin=13 EnMin= -331.177449573940     IErMin=13 ErrMin= 4.51D-06
 ErrMax= 4.51D-06  0.00D+00 EMaxC= 1.00D-01 BMatC= 4.77D-09 BMatP= 9.22D-09
 IDIUse=1 WtCom= 1.00D+00 WtEn= 0.00D+00
 Coeff-Com:  0.599D-04-0.874D-04-0.637D-04-0.248D-03-0.917D-03-0.157D-02
 Coeff-Com: -0.218D-02 0.240D-01 0.185D-01-0.505D-01-0.133D+00 0.483D+00
 Coeff-Com:  0.663D+00
 Coeff:      0.599D-04-0.874D-04-0.637D-04-0.248D-03-0.917D-03-0.157D-02
 Coeff:     -0.218D-02 0.240D-01 0.185D-01-0.505D-01-0.133D+00 0.483D+00
 Coeff:      0.663D+00
 Gap=     0.025 Goal=   None    Shift=    0.000
 Gap=     0.245 Goal=   None    Shift=    0.000
 RMSDP=2.92D-04 MaxDP=2.95D-02 DE=-1.69D-08 OVMax= 2.19D-04

 Cycle  14  Pass 1  IDiag  1:
 RMSU=  1.74D-05    CP:  9.80D-01  5.58D-03  1.79D-01  3.19D-01  1.97D+00
                    CP:  3.00D+00  3.00D+00  2.17D+00  1.96D+00  3.00D+00
                    CP:  2.15D+00  1.29D+00  1.85D+00
 E= -331.177449578130     Delta-E=       -0.000000004191 Rises=F Damp=F
 DIIS: error= 1.50D-06 at cycle  14 NSaved=  14.
 NSaved=14 IEnMin=14 EnMin= -331.177449578130     IErMin=14 ErrMin= 1.50D-06
 ErrMax= 1.50D-06  0.00D+00 EMaxC= 1.00D-01 BMatC= 4.76D-10 BMatP= 4.77D-09
 IDIUse=1 WtCom= 1.00D+00 WtEn= 0.00D+00
 Coeff-Com: -0.435D-05 0.391D-05-0.178D-04 0.115D-03 0.173D-03-0.118D-03
 Coeff-Com: -0.979D-03-0.276D-02 0.282D-02 0.174D-01-0.556D-01-0.857D-01
 Coeff-Com:  0.101D+00 0.102D+01
 Coeff:     -0.435D-05 0.391D-05-0.178D-04 0.115D-03 0.173D-03-0.118D-03
 Coeff:     -0.979D-03-0.276D-02 0.282D-02 0.174D-01-0.556D-01-0.857D-01
 Coeff:      0.101D+00 0.102D+01
 Gap=     0.025 Goal=   None    Shift=    0.000
 Gap=     0.245 Goal=   None    Shift=    0.000
 RMSDP=1.84D-04 MaxDP=1.57D-02 DE=-4.19D-09 OVMax= 2.00D-04

 Cycle  15  Pass 1  IDiag  1:
 RMSU=  7.19D-06    CP:  9.81D-01  5.60D-03  1.79D-01  3.18D-01  1.97D+00
                    CP:  3.00D+00  3.00D+00  2.17D+00  1.96D+00  3.00D+00
                    CP:  2.20D+00  1.31D+00  2.76D+00  3.00D+00
 E= -331.177449579595     Delta-E=       -0.000000001465 Rises=F Damp=F
 DIIS: error= 4.65D-07 at cycle  15 NSaved=  15.
 NSaved=15 IEnMin=15 EnMin= -331.177449579595     IErMin=15 ErrMin= 4.65D-07
 ErrMax= 4.65D-07  0.00D+00 EMaxC= 1.00D-01 BMatC= 5.78D-11 BMatP= 4.76D-10
 IDIUse=1 WtCom= 1.00D+00 WtEn= 0.00D+00
 Coeff-Com: -0.350D-05 0.546D-05 0.161D-04 0.729D-05 0.926D-04 0.241D-03
 Coeff-Com:  0.324D-03-0.265D-02-0.685D-03 0.808D-02 0.169D-01-0.329D-01
 Coeff-Com: -0.106D+00-0.213D+00 0.133D+01
 Coeff:     -0.350D-05 0.546D-05 0.161D-04 0.729D-05 0.926D-04 0.241D-03
 Coeff:      0.324D-03-0.265D-02-0.685D-03 0.808D-02 0.169D-01-0.329D-01
 Coeff:     -0.106D+00-0.213D+00 0.133D+01
 Gap=     0.025 Goal=   None    Shift=    0.000
 Gap=     0.245 Goal=   None    Shift=    0.000
 RMSDP=4.01D-04 MaxDP=3.90D-02 DE=-1.46D-09 OVMax= 9.63D-05

 Cycle  16  Pass 1  IDiag  1:
 RMSU=  7.73D-05    CP:  9.81D-01  5.65D-03  1.80D-01  3.17D-01  1.97D+00
                    CP:  3.00D+00  3.00D+00  2.16D+00  1.95D+00  3.00D+00
                    CP:  2.23D+00  1.25D+00  3.00D+00  3.00D+00  2.06D+00
 E= -331.177449580067     Delta-E=       -0.000000000472 Rises=F Damp=F
 DIIS: error= 4.53D-07 at cycle  16 NSaved=  16.
 NSaved=16 IEnMin=16 EnMin= -331.177449580067     IErMin=16 ErrMin= 4.53D-07
 ErrMax= 4.53D-07  0.00D+00 EMaxC= 1.00D-01 BMatC= 2.07D-11 BMatP= 5.78D-11
 IDIUse=1 WtCom= 1.00D+00 WtEn= 0.00D+00
 Coeff-Com:  0.269D-05-0.374D-05 0.549D-05-0.234D-04-0.627D-04-0.956D-06
 Coeff-Com: -0.107D-04 0.677D-03-0.228D-03-0.471D-02 0.103D-01 0.171D-01
 Coeff-Com: -0.361D-01-0.275D+00 0.976D-01 0.119D+01
 Coeff:      0.269D-05-0.374D-05 0.549D-05-0.234D-04-0.627D-04-0.956D-06
 Coeff:     -0.107D-04 0.677D-03-0.228D-03-0.471D-02 0.103D-01 0.171D-01
 Coeff:     -0.361D-01-0.275D+00 0.976D-01 0.119D+01
 Gap=     0.025 Goal=   None    Shift=    0.000
 Gap=     0.245 Goal=   None    Shift=    0.000
 RMSDP=1.35D-04 MaxDP=1.40D-02 DE=-4.72D-10 OVMax= 5.67D-05

 Cycle  17  Pass 1  IDiag  1:
 RMSU=  3.30D-06    CP:  9.81D-01  5.67D-03  1.80D-01  3.17D-01  1.97D+00
                    CP:  3.00D+00  3.00D+00  2.16D+00  1.95D+00  3.00D+00
                    CP:  2.24D+00  1.24D+00  3.00D+00  3.00D+00  2.82D+00
                    CP:  1.81D+00
 E= -331.177449580150     Delta-E=       -0.000000000083 Rises=F Damp=F
 DIIS: error= 1.67D-07 at cycle  17 NSaved=  17.
 NSaved=17 IEnMin=17 EnMin= -331.177449580150     IErMin=17 ErrMin= 1.67D-07
 ErrMax= 1.67D-07  0.00D+00 EMaxC= 1.00D-01 BMatC= 2.06D-12 BMatP= 2.07D-11
 IDIUse=1 WtCom= 1.00D+00 WtEn= 0.00D+00
 Coeff-Com: -0.117D-05 0.178D-05-0.409D-05 0.633D-05 0.953D-05-0.190D-04
 Coeff-Com:  0.345D-04 0.669D-04-0.130D-04 0.233D-03-0.207D-02-0.230D-02
 Coeff-Com:  0.219D-01 0.957D-01-0.222D+00-0.137D+00 0.125D+01
 Coeff:     -0.117D-05 0.178D-05-0.409D-05 0.633D-05 0.953D-05-0.190D-04
 Coeff:      0.345D-04 0.669D-04-0.130D-04 0.233D-03-0.207D-02-0.230D-02
 Coeff:      0.219D-01 0.957D-01-0.222D+00-0.137D+00 0.125D+01
 Gap=     0.025 Goal=   None    Shift=    0.000
 Gap=     0.245 Goal=   None    Shift=    0.000
 RMSDP=6.51D-05 MaxDP=6.07D-03 DE=-8.28D-11 OVMax= 1.48D-05

 Cycle  18  Pass 1  IDiag  1:
 RMSU=  1.25D-06    CP:  9.81D-01  5.68D-03  1.80D-01  3.17D-01  1.97D+00
                    CP:  3.00D+00  3.00D+00  2.16D+00  1.94D+00  3.00D+00
                    CP:  2.25D+00  1.23D+00  3.00D+00  3.00D+00  2.79D+00
                    CP:  1.92D+00  1.33D+00
 E= -331.177449580154     Delta-E=       -0.000000000004 Rises=F Damp=F
 DIIS: error= 6.78D-08 at cycle  18 NSaved=  18.
 NSaved=18 IEnMin=18 EnMin= -331.177449580154     IErMin=18 ErrMin= 6.78D-08
 ErrMax= 6.78D-08  0.00D+00 EMaxC= 1.00D-01 BMatC= 2.76D-13 BMatP= 2.06D-12
 IDIUse=1 WtCom= 1.00D+00 WtEn= 0.00D+00
 Coeff-Com:  0.161D-06-0.268D-06 0.742D-06-0.173D-05-0.290D-05 0.399D-05
 Coeff-Com: -0.234D-04-0.407D-04 0.118D-04 0.299D-04-0.311D-03 0.296D-04
 Coeff-Com: -0.505D-02-0.171D-01 0.643D-01-0.533D-01-0.462D+00 0.147D+01
 Coeff:      0.161D-06-0.268D-06 0.742D-06-0.173D-05-0.290D-05 0.399D-05
 Coeff:     -0.234D-04-0.407D-04 0.118D-04 0.299D-04-0.311D-03 0.296D-04
 Coeff:     -0.505D-02-0.171D-01 0.643D-01-0.533D-01-0.462D+00 0.147D+01
 Gap=     0.025 Goal=   None    Shift=    0.000
 Gap=     0.245 Goal=   None    Shift=    0.000
 RMSDP=2.68D-06 MaxDP=1.61D-04 DE=-4.32D-12 OVMax= 3.68D-06

 Cycle  19  Pass 1  IDiag  1:
 RMSU=  9.54D-08    CP:  9.81D-01  5.68D-03  1.80D-01  3.17D-01  1.97D+00
                    CP:  3.00D+00  3.00D+00  2.16D+00  1.94D+00  3.00D+00
                    CP:  2.25D+00  1.23D+00  3.00D+00  3.00D+00  2.79D+00
                    CP:  1.93D+00  1.36D+00  1.15D+00
 E= -331.177449580155     Delta-E=       -0.000000000001 Rises=F Damp=F
 DIIS: error= 4.15D-08 at cycle  19 NSaved=  19.
 NSaved=19 IEnMin=19 EnMin= -331.177449580155     IErMin=19 ErrMin= 4.15D-08
 ErrMax= 4.15D-08  0.00D+00 EMaxC= 1.00D-01 BMatC= 1.16D-13 BMatP= 2.76D-13
 IDIUse=1 WtCom= 1.00D+00 WtEn= 0.00D+00
 Coeff-Com:  0.100D-06-0.144D-06 0.735D-06-0.113D-05 0.260D-06 0.546D-05
 Coeff-Com:  0.801D-05-0.135D-04-0.542D-04-0.731D-04 0.937D-03-0.664D-04
 Coeff-Com: -0.364D-02-0.126D-01 0.176D-01 0.911D-01-0.196D+00-0.445D+00
 Coeff-Com:  0.155D+01
 Coeff:      0.100D-06-0.144D-06 0.735D-06-0.113D-05 0.260D-06 0.546D-05
 Coeff:      0.801D-05-0.135D-04-0.542D-04-0.731D-04 0.937D-03-0.664D-04
 Coeff:     -0.364D-02-0.126D-01 0.176D-01 0.911D-01-0.196D+00-0.445D+00
 Coeff:      0.155D+01
 Gap=     0.025 Goal=   None    Shift=    0.000
 Gap=     0.245 Goal=   None    Shift=    0.000
 RMSDP=4.74D-06 MaxDP=5.13D-04 DE=-6.82D-13 OVMax= 2.73D-06

 Cycle  20  Pass 1  IDiag  1:
 RMSU=  5.20D-08    CP:  9.81D-01  5.68D-03  1.80D-01  3.17D-01  1.97D+00
                    CP:  3.00D+00  3.00D+00  2.16D+00  1.94D+00  3.00D+00
                    CP:  2.25D+00  1.23D+00  3.00D+00  3.00D+00  2.76D+00
                    CP:  1.90D+00  1.33D+00  1.06D+00  6.45D-01
 E= -331.177449580155     Delta-E=       -0.000000000000 Rises=F Damp=F
 DIIS: error= 9.86D-09 at cycle  20 NSaved=  20.
 NSaved=20 IEnMin=20 EnMin= -331.177449580155     IErMin=20 ErrMin= 9.86D-09
 ErrMax= 9.86D-09  0.00D+00 EMaxC= 1.00D-01 BMatC= 2.16D-14 BMatP= 1.16D-13
 IDIUse=1 WtCom= 1.00D+00 WtEn= 0.00D+00
 Coeff-Com:  0.202D-07-0.241D-07 0.248D-06-0.266D-06 0.433D-06 0.203D-05
 Coeff-Com:  0.689D-05-0.207D-05-0.310D-04-0.478D-04 0.509D-03-0.306D-04
 Coeff-Com: -0.112D-02-0.453D-02-0.799D-03 0.542D-01-0.342D-01-0.419D+00
 Coeff-Com:  0.699D+00 0.706D+00
 Coeff:      0.202D-07-0.241D-07 0.248D-06-0.266D-06 0.433D-06 0.203D-05
 Coeff:      0.689D-05-0.207D-05-0.310D-04-0.478D-04 0.509D-03-0.306D-04
 Coeff:     -0.112D-02-0.453D-02-0.799D-03 0.542D-01-0.342D-01-0.419D+00
 Coeff:      0.699D+00 0.706D+00
 Gap=     0.025 Goal=   None    Shift=    0.000
 Gap=     0.245 Goal=   None    Shift=    0.000
 RMSDP=1.93D-06 MaxDP=2.01D-04 DE=-1.14D-13 OVMax= 5.40D-07

 Cycle  21  Pass 1  IDiag  1:
 Restarting incremental Fock formation.
 E= -331.177449580150     Delta-E=        0.000000000005 Rises=F Damp=F
 DIIS: error= 9.66D-09 at cycle  21 NSaved=  20.
 NSaved=20 IEnMin=19 EnMin= -331.177449580155     IErMin=20 ErrMin= 9.66D-09
 ErrMax= 9.66D-09  0.00D+00 EMaxC= 1.00D-01 BMatC= 1.58D-14 BMatP= 2.16D-14
 IDIUse=1 WtCom= 1.00D+00 WtEn= 0.00D+00
 Large coefficients: NSaved= 20 BigCof=    0.00 CofMax=   10.00 Det=-7.21D-15
 Inversion failed.  Reducing to 19 matrices.
 Large coefficients: NSaved= 19 BigCof=    0.00 CofMax=   10.00 Det=-7.22D-15
 Inversion failed.  Reducing to 18 matrices.
 Large coefficients: NSaved= 18 BigCof=    0.00 CofMax=   10.00 Det=-8.30D-15
 Inversion failed.  Reducing to 17 matrices.
 Large coefficients: NSaved= 17 BigCof=    0.00 CofMax=   10.00 Det=-8.57D-15
 Inversion failed.  Reducing to 16 matrices.
 Coeff-Com:  0.430D-06 0.226D-05-0.232D-05-0.572D-05-0.204D-04 0.939D-04
 Coeff-Com:  0.153D-03-0.127D-03-0.237D-02-0.632D-03 0.876D-02 0.220D-01
 Coeff-Com: -0.102D+00-0.122D+00 0.565D+00 0.631D+00
 Coeff:      0.430D-06 0.226D-05-0.232D-05-0.572D-05-0.204D-04 0.939D-04
 Coeff:      0.153D-03-0.127D-03-0.237D-02-0.632D-03 0.876D-02 0.220D-01
 Coeff:     -0.102D+00-0.122D+00 0.565D+00 0.631D+00
 Gap=     0.025 Goal=   None    Shift=    0.000
 Gap=     0.245 Goal=   None    Shift=    0.000
 RMSDP=1.63D-06 MaxDP=1.55D-04 DE= 5.12D-12 OVMax= 3.21D-07

 Cycle  22  Pass 1  IDiag  1:
 RMSU=  1.63D-06    CP:  1.00D+00
 E= -331.177449580150     Delta-E=       -0.000000000000 Rises=F Damp=F
 DIIS: error= 1.72D-09 at cycle  22 NSaved=  17.
 NSaved=17 IEnMin=15 EnMin= -331.177449580155     IErMin=17 ErrMin= 1.72D-09
 ErrMax= 1.72D-09  0.00D+00 EMaxC= 1.00D-01 BMatC= 4.99D-16 BMatP= 1.58D-14
 IDIUse=1 WtCom= 1.00D+00 WtEn= 0.00D+00
 Large coefficients: NSaved= 17 BigCof=    0.00 CofMax=   10.00 Det=-3.11D-15
 Inversion failed.  Reducing to 16 matrices.
 Large coefficients: NSaved= 16 BigCof=    0.00 CofMax=   10.00 Det=-3.32D-15
 Inversion failed.  Reducing to 15 matrices.
 Coeff-Com: -0.338D-05 0.614D-06 0.958D-05-0.438D-04-0.633D-05 0.797D-04
 Coeff-Com:  0.485D-03 0.517D-03-0.696D-02 0.438D-02 0.627D-01-0.117D+00
 Coeff-Com: -0.915D-01 0.115D-01 0.114D+01
 Coeff:     -0.338D-05 0.614D-06 0.958D-05-0.438D-04-0.633D-05 0.797D-04
 Coeff:      0.485D-03 0.517D-03-0.696D-02 0.438D-02 0.627D-01-0.117D+00
 Coeff:     -0.915D-01 0.115D-01 0.114D+01
 Gap=     0.025 Goal=   None    Shift=    0.000
 Gap=     0.245 Goal=   None    Shift=    0.000
 RMSDP=7.04D-07 MaxDP=6.40D-05 DE=-2.27D-13 OVMax= 1.60D-07

 Cycle  23  Pass 1  IDiag  1:
 RMSU=  5.54D-08    CP:  1.00D+00  1.43D+00
 E= -331.177449580150     Delta-E=       -0.000000000000 Rises=F Damp=F
 DIIS: error= 3.14D-10 at cycle  23 NSaved=  16.
 NSaved=16 IEnMin=13 EnMin= -331.177449580155     IErMin=16 ErrMin= 3.14D-10
 ErrMax= 3.14D-10  0.00D+00 EMaxC= 1.00D-01 BMatC= 4.12D-17 BMatP= 4.99D-16
 IDIUse=1 WtCom= 1.00D+00 WtEn= 0.00D+00
 Large coefficients: NSaved= 16 BigCof=    0.00 CofMax=   10.00 Det=-1.37D-16
 Inversion failed.  Reducing to 15 matrices.
 Coeff-Com:  0.829D-06 0.368D-05-0.166D-04-0.134D-04 0.478D-04 0.401D-03
 Coeff-Com: -0.219D-03-0.165D-02 0.583D-03 0.139D-01-0.118D-01-0.552D-01
 Coeff-Com: -0.353D-01 0.286D+00 0.803D+00
 Coeff:      0.829D-06 0.368D-05-0.166D-04-0.134D-04 0.478D-04 0.401D-03
 Coeff:     -0.219D-03-0.165D-02 0.583D-03 0.139D-01-0.118D-01-0.552D-01
 Coeff:     -0.353D-01 0.286D+00 0.803D+00
 Gap=     0.025 Goal=   None    Shift=    0.000
 Gap=     0.245 Goal=   None    Shift=    0.000
 RMSDP=6.82D-08 MaxDP=6.30D-06 DE=-2.27D-13 OVMax= 4.77D-08

 Cycle  24  Pass 1  IDiag  1:
 RMSU=  1.67D-08    CP:  1.00D+00  1.39D+00  1.44D+00
 E= -331.177449580149     Delta-E=        0.000000000002 Rises=F Damp=F
 DIIS: error= 1.36D-10 at cycle  24 NSaved=  16.
 NSaved=16 IEnMin=12 EnMin= -331.177449580155     IErMin=16 ErrMin= 1.36D-10
 ErrMax= 1.36D-10  0.00D+00 EMaxC= 1.00D-01 BMatC= 5.90D-18 BMatP= 4.12D-17
 IDIUse=1 WtCom= 1.00D+00 WtEn= 0.00D+00
 Large coefficients: NSaved= 16 BigCof=    0.00 CofMax=   10.00 Det=-3.62D-17
 Inversion failed.  Reducing to 15 matrices.
 Coeff-Com: -0.193D-06-0.102D-05-0.899D-06-0.104D-05 0.244D-04-0.206D-04
 Coeff-Com: -0.317D-04-0.659D-03 0.176D-02 0.281D-02-0.743D-02-0.979D-02
 Coeff-Com: -0.228D-01 0.255D+00 0.781D+00
 Coeff:     -0.193D-06-0.102D-05-0.899D-06-0.104D-05 0.244D-04-0.206D-04
 Coeff:     -0.317D-04-0.659D-03 0.176D-02 0.281D-02-0.743D-02-0.979D-02
 Coeff:     -0.228D-01 0.255D+00 0.781D+00
 Gap=     0.025 Goal=   None    Shift=    0.000
 Gap=     0.245 Goal=   None    Shift=    0.000
 RMSDP=2.23D-08 MaxDP=1.48D-06 DE= 1.59D-12 OVMax= 1.31D-08

 Cycle  25  Pass 1  IDiag  1:
 RMSU=  7.69D-09    CP:  1.00D+00  1.40D+00  1.33D+00  4.11D-01
 E= -331.177449580154     Delta-E=       -0.000000000005 Rises=F Damp=F
 DIIS: error= 3.41D-11 at cycle  25 NSaved=  16.
 NSaved=16 IEnMin=11 EnMin= -331.177449580155     IErMin=16 ErrMin= 3.41D-11
 ErrMax= 3.41D-11  0.00D+00 EMaxC= 1.00D-01 BMatC= 5.77D-19 BMatP= 5.90D-18
 IDIUse=1 WtCom= 1.00D+00 WtEn= 0.00D+00
 Large coefficients: NSaved= 16 BigCof=    0.00 CofMax=   10.00 Det=-3.75D-18
 Inversion failed.  Reducing to 15 matrices.
 Coeff-Com:  0.835D-06-0.105D-05-0.436D-05-0.143D-04 0.127D-04 0.142D-03
 Coeff-Com: -0.251D-03-0.105D-02 0.292D-02 0.164D-02-0.130D-02-0.330D-01
 Coeff-Com:  0.213D-01 0.261D+00 0.749D+00
 Coeff:      0.835D-06-0.105D-05-0.436D-05-0.143D-04 0.127D-04 0.142D-03
 Coeff:     -0.251D-03-0.105D-02 0.292D-02 0.164D-02-0.130D-02-0.330D-01
 Coeff:      0.213D-01 0.261D+00 0.749D+00
 Gap=     0.025 Goal=   None    Shift=    0.000
 Gap=     0.245 Goal=   None    Shift=    0.000
 RMSDP=3.45D-09 MaxDP=3.87D-07 DE=-4.77D-12 OVMax= 1.88D-09

 SCF Done:  E(UPBE1PBE) =  -331.177449580     A.U. after   25 cycles
            NFock= 25  Conv=0.35D-08     -V/T= 2.0033
 <Sx>= 0.0000 <Sy>= 0.0000 <Sz>= 0.5000 <S**2>= 0.7501 S= 0.5000
 <L.S>=  0.00000000000    
 KE= 3.300938164943D+02 PE=-1.321345004180D+03 EE= 3.900372435716D+02
 Annihilation of the first spin contaminant:
 S**2 before annihilation     0.7501,   after     0.7500
 Leave Link  502 at Wed Jan 29 15:34:40 2025, MaxMem=   104857600 cpu:              83.3 elap:              83.9
 (Enter /sw/cluster/pub/apps//g16/l601.exe)
 Copying SCF densities to generalized density rwf, IOpCl= 1 IROHF=0.

 **********************************************************************

            Population analysis using the SCF density.

 **********************************************************************

 Alpha  occ. eigenvalues --  -24.67487 -10.19984 -10.12097 -10.12096 -10.11951
 Alpha  occ. eigenvalues --  -10.11949 -10.11092  -1.15860  -0.78078  -0.67107
 Alpha  occ. eigenvalues --   -0.66207  -0.53304  -0.52445  -0.45694  -0.40151
 Alpha  occ. eigenvalues --   -0.39762  -0.38383  -0.34701  -0.33398  -0.30939
 Alpha  occ. eigenvalues --   -0.26890  -0.26888  -0.24737  -0.16300  -0.14950
 Alpha  occ. eigenvalues --    0.05222
 Alpha virt. eigenvalues --    0.07772   0.08821   0.09560   0.10438   0.10781
 Alpha virt. eigenvalues --    0.11102   0.14767   0.16305   0.18274   0.18768
 Alpha virt. eigenvalues --    0.19167   0.19890   0.20780   0.21104   0.21601
 Alpha virt. eigenvalues --    0.22104   0.22250   0.23050   0.23478   0.23918
 Alpha virt. eigenvalues --    0.23937   0.24176   0.25402   0.25727   0.27624
 Alpha virt. eigenvalues --    0.28331   0.29115   0.30092   0.31867   0.32368
 Alpha virt. eigenvalues --    0.33789   0.35516   0.36950   0.38056   0.38866
 Alpha virt. eigenvalues --    0.41058   0.41335   0.41840   0.44626   0.45366
 Alpha virt. eigenvalues --    0.45669   0.48539   0.50141   0.50687   0.54670
 Alpha virt. eigenvalues --    0.59889   0.61580   0.64184   0.65453   0.66443
 Alpha virt. eigenvalues --    0.68010   0.69030   0.69194   0.69517   0.72025
 Alpha virt. eigenvalues --    0.72205   0.73812   0.74135   0.80065   0.80183
 Alpha virt. eigenvalues --    0.85298   0.86860   0.88785   0.90503   0.92166
 Alpha virt. eigenvalues --    0.96874   0.97924   0.97930   0.99894   1.00753
 Alpha virt. eigenvalues --    1.01559   1.03980   1.06112   1.09074   1.11672
 Alpha virt. eigenvalues --    1.14275   1.14603   1.18991   1.22032   1.25057
 Alpha virt. eigenvalues --    1.30406   1.41010   1.46397   1.54525   1.55547
 Alpha virt. eigenvalues --    1.57423   1.62941   1.64727   1.65529   1.68667
 Alpha virt. eigenvalues --    1.68767   1.69329   1.72955   1.76743   1.77513
 Alpha virt. eigenvalues --    1.79012   1.86397   1.86447   1.89181   1.95540
 Alpha virt. eigenvalues --    1.99770   2.04108   2.04299   2.06020   2.08296
 Alpha virt. eigenvalues --    2.08448   2.11154   2.14402   2.16082   2.18243
 Alpha virt. eigenvalues --    2.20153   2.20211   2.40721   2.42459   2.45973
 Alpha virt. eigenvalues --    2.54540   2.56990   2.58075   2.63600   2.74834
 Alpha virt. eigenvalues --    2.78110   2.78256   2.83494   2.84386   2.86275
 Alpha virt. eigenvalues --    2.87926   2.90659   2.90684   2.93355   2.97596
 Alpha virt. eigenvalues --    2.98452   3.01957   3.03064   3.08694   3.21978
 Alpha virt. eigenvalues --    3.27860   3.31950   3.49129   3.50527   3.63100
 Alpha virt. eigenvalues --    3.64753   3.76779   3.86812   3.90992   3.98094
 Alpha virt. eigenvalues --    4.11516   4.13431   4.19571   4.25345   4.29462
 Alpha virt. eigenvalues --    4.29744   4.98512   5.00748   6.47126   6.60183
 Alpha virt. eigenvalues --    6.90778  23.78109  24.14659  24.19961  24.30944
 Alpha virt. eigenvalues --   24.32271  24.42553  67.06635
  Beta  occ. eigenvalues --  -24.67484 -10.19985 -10.12086 -10.12085 -10.11928
  Beta  occ. eigenvalues --  -10.11926 -10.11071  -1.15855  -0.78039  -0.67061
  Beta  occ. eigenvalues --   -0.66160  -0.53242  -0.52399  -0.45620  -0.40061
  Beta  occ. eigenvalues --   -0.39728  -0.38381  -0.34606  -0.33326  -0.30911
  Beta  occ. eigenvalues --   -0.26858  -0.26798  -0.24663  -0.16269  -0.14928
  Beta virt. eigenvalues --    0.09534   0.09614   0.10508   0.10828   0.11161
  Beta virt. eigenvalues --    0.13056   0.13391   0.16448   0.16661   0.18817
  Beta virt. eigenvalues --    0.19024   0.19456   0.20360   0.22164   0.22451
  Beta virt. eigenvalues --    0.22693   0.23324   0.23338   0.23488   0.23924
  Beta virt. eigenvalues --    0.24517   0.25008   0.25386   0.25685   0.26446
  Beta virt. eigenvalues --    0.28304   0.29653   0.30226   0.30566   0.32242
  Beta virt. eigenvalues --    0.32595   0.35748   0.36048   0.37450   0.38787
  Beta virt. eigenvalues --    0.39351   0.41931   0.42076   0.42167   0.45145
  Beta virt. eigenvalues --    0.46071   0.46384   0.49031   0.50636   0.51046
  Beta virt. eigenvalues --    0.55015   0.60114   0.61829   0.64353   0.65702
  Beta virt. eigenvalues --    0.66579   0.68172   0.69204   0.69384   0.69697
  Beta virt. eigenvalues --    0.72156   0.72369   0.74031   0.74336   0.80324
  Beta virt. eigenvalues --    0.80370   0.85656   0.87220   0.89069   0.90786
  Beta virt. eigenvalues --    0.92374   0.97073   0.98161   0.98216   1.00224
  Beta virt. eigenvalues --    1.01080   1.01798   1.04153   1.06264   1.09122
  Beta virt. eigenvalues --    1.11688   1.14417   1.14741   1.19029   1.22072
  Beta virt. eigenvalues --    1.25089   1.30440   1.41203   1.46547   1.54623
  Beta virt. eigenvalues --    1.55704   1.57500   1.63065   1.64835   1.65632
  Beta virt. eigenvalues --    1.68727   1.68874   1.69419   1.73009   1.76814
  Beta virt. eigenvalues --    1.77584   1.79075   1.86529   1.86532   1.89281
  Beta virt. eigenvalues --    1.95668   1.99882   2.04141   2.04325   2.06121
  Beta virt. eigenvalues --    2.08378   2.08570   2.11224   2.14515   2.16169
  Beta virt. eigenvalues --    2.18324   2.20204   2.20290   2.40803   2.42513
  Beta virt. eigenvalues --    2.45999   2.54631   2.57117   2.58188   2.63679
  Beta virt. eigenvalues --    2.74902   2.78190   2.78291   2.83638   2.84522
  Beta virt. eigenvalues --    2.86420   2.88085   2.90722   2.90846   2.93399
  Beta virt. eigenvalues --    2.97677   2.98532   3.01993   3.03099   3.08785
  Beta virt. eigenvalues --    3.22011   3.27895   3.31983   3.49165   3.50569
  Beta virt. eigenvalues --    3.63158   3.64834   3.76828   3.86854   3.90990
  Beta virt. eigenvalues --    3.98103   4.11525   4.13505   4.19665   4.25362
  Beta virt. eigenvalues --    4.29499   4.29791   4.98531   5.00775   6.47143
  Beta virt. eigenvalues --    6.60199   6.90808  23.78125  24.14674  24.19982
  Beta virt. eigenvalues --   24.30960  24.32289  24.42573  67.06638
          Condensed to atoms (all electrons):
               1          2          3          4          5          6
     1  C   16.767022  -4.602800   2.115622  -1.102829  -0.309606   5.290153
     2  C   -4.602800  11.161165  -2.573238   0.070169  -1.102829  -2.750143
     3  C    2.115622  -2.573238   9.103741  -2.573238   2.115622   0.599532
     4  C   -1.102829   0.070169  -2.573238  11.161164  -4.602800  -2.750143
     5  C   -0.309606  -1.102829   2.115622  -4.602800  16.767022   5.290153
     6  C    5.290153  -2.750143   0.599532  -2.750143   5.290153  29.155620
     7  H   -7.744493   2.958136  -0.873882   1.001384  -0.399733  -9.191212
     8  H   -2.212139   0.934013  -0.212053  -0.077146  -0.169608  -1.584181
     9  H   -0.169608  -0.077146  -0.212053   0.934013  -2.212139  -1.584181
    10  H   -0.399733   1.001384  -0.873883   2.958136  -7.744493  -9.191212
    11  H   -2.375921   1.566593  -0.761230   1.566593  -2.375922  -8.530493
    12  F   -0.098082  -0.478204   0.747976  -0.478204  -0.098082  -0.323394
               7          8          9         10         11         12
     1  C   -7.744493  -2.212139  -0.169608  -0.399733  -2.375921  -0.098082
     2  C    2.958136   0.934013  -0.077146   1.001384   1.566593  -0.478204
     3  C   -0.873882  -0.212053  -0.212053  -0.873883  -0.761230   0.747976
     4  C    1.001384  -0.077146   0.934013   2.958136   1.566593  -0.478204
     5  C   -0.399733  -0.169608  -2.212139  -7.744493  -2.375922  -0.098082
     6  C   -9.191212  -1.584181  -1.584181  -9.191212  -8.530493  -0.323394
     7  H    8.288228   1.683811   0.486559   2.172763   3.597002   0.156247
     8  H    1.683811   1.368275   0.249404   0.486559   0.516215   0.113514
     9  H    0.486559   0.249404   1.368275   1.683811   0.516215   0.113514
    10  H    2.172763   0.486559   1.683811   8.288228   3.597002   0.156247
    11  H    3.597002   0.516215   0.516215   3.597002   4.421229   0.063721
    12  F    0.156247   0.113514   0.113514   0.156247   0.063721   9.298006
          Atomic-Atomic Spin Densities.
               1          2          3          4          5          6
     1  C    9.978811  -3.218665   0.765588  -0.200810  -1.401583   6.384307
     2  C   -3.218665   1.893681  -0.801259   0.870146  -0.200810  -4.129010
     3  C    0.765588  -0.801259   0.609547  -0.801259   0.765588   2.111702
     4  C   -0.200810   0.870146  -0.801259   1.893681  -3.218665  -4.129010
     5  C   -1.401583  -0.200810   0.765588  -3.218665   9.978811   6.384307
     6  C    6.384307  -4.129010   2.111702  -4.129010   6.384307  22.156568
     7  H   -8.163527   3.074914  -0.933589   0.994508  -0.420436  -9.112054
     8  H   -2.182349   0.389712  -0.044585  -0.002455  -0.168818  -1.625098
     9  H   -0.168818  -0.002455  -0.044585   0.389712  -2.182349  -1.625098
    10  H   -0.420436   0.994508  -0.933589   3.074914  -8.163527  -9.112053
    11  H   -2.340569   1.557487  -0.755802   1.557487  -2.340569  -8.917920
    12  F   -0.170803  -0.085800   0.013515  -0.085800  -0.170803  -0.260598
               7          8          9         10         11         12
     1  C   -8.163527  -2.182349  -0.168818  -0.420436  -2.340569  -0.170803
     2  C    3.074914   0.389712  -0.002455   0.994508   1.557487  -0.085800
     3  C   -0.933589  -0.044585  -0.044585  -0.933589  -0.755802   0.013515
     4  C    0.994508  -0.002455   0.389712   3.074914   1.557487  -0.085800
     5  C   -0.420436  -0.168818  -2.182349  -8.163527  -2.340569  -0.170803
     6  C   -9.112054  -1.625098  -1.625098  -9.112053  -8.917920  -0.260598
     7  H    7.852241   1.691103   0.485917   2.172304   3.598461   0.154425
     8  H    1.691103   0.884274   0.250767   0.485917   0.515294   0.140560
     9  H    0.485917   0.250767   0.884274   1.691103   0.515294   0.140560
    10  H    2.172304   0.485917   1.691103   7.852241   3.598461   0.154425
    11  H    3.598461   0.515294   0.515294   3.598461   3.996492   0.064335
    12  F    0.154425   0.140560   0.140560   0.154425   0.064335   0.115865
 Mulliken charges and spin densities:
               1          2
     1  C    0.842413  -1.138855
     2  C   -0.107101   0.342449
     3  C   -0.602917  -0.048729
     4  C   -0.107101   0.342449
     5  C    0.842413  -1.138855
     6  C    1.569501  -1.873959
     7  H   -1.134810   1.394265
     8  H   -0.096664   0.334320
     9  H   -0.096664   0.334320
    10  H   -1.134810   1.394265
    11  H   -0.801003   1.048451
    12  F   -0.173258   0.009879
 Sum of Mulliken charges =  -1.00000   1.00000
 Mulliken charges and spin densities with hydrogens summed into heavy atoms:
               1          2
     1  C   -0.292397   0.255411
     2  C   -0.203765   0.676769
     3  C   -0.602917  -0.048729
     4  C   -0.203765   0.676769
     5  C   -0.292397   0.255411
     6  C    0.768498  -0.825509
    12  F   -0.173258   0.009879
 Electronic spatial extent (au):  <R**2>=            767.1780
 Charge=             -1.0000 electrons
 Dipole moment (field-independent basis, Debye):
    X=             -0.0000    Y=             -5.9214    Z=             -0.0000  Tot=              5.9214
 Quadrupole moment (field-independent basis, Debye-Ang):
   XX=            -87.4728   YY=            -85.9466   ZZ=            -60.4839
   XY=             -0.0000   XZ=             -0.0000   YZ=             -0.0000
 Traceless Quadrupole moment (field-independent basis, Debye-Ang):
   XX=             -9.5050   YY=             -7.9788   ZZ=             17.4838
   XY=             -0.0000   XZ=             -0.0000   YZ=             -0.0000
 Octapole moment (field-independent basis, Debye-Ang**2):
  XXX=             -0.0000  YYY=            -83.3848  ZZZ=             -0.0000  XYY=             -0.0000
  XXY=            -49.5802  XXZ=             -0.0000  XZZ=             -0.0000  YZZ=            -15.3973
  YYZ=             -0.0000  XYZ=             -0.0000
 Hexadecapole moment (field-independent basis, Debye-Ang**3):
 XXXX=          -1343.6857 YYYY=          -1348.1451 ZZZZ=           -214.0044 XXXY=             -0.0000
 XXXZ=              0.0000 YYYX=             -0.0000 YYYZ=             -0.0000 ZZZX=              0.0000
 ZZZY=             -0.0000 XXYY=           -445.8282 XXZZ=           -213.8024 YYZZ=           -218.7709
 XXYZ=             -0.0000 YYXZ=             -0.0000 ZZXY=             -0.0000
 N-N= 2.700364945340D+02 E-N=-1.321345004185D+03  KE= 3.300938164943D+02
                          Isotropic Fermi Contact Couplings
        Atom                 a.u.       MegaHertz       Gauss      10(-4) cm-1
     1  C(13)              0.01500      16.86791       6.01889       5.62653
     2  C(13)              0.01060      11.92184       4.25401       3.97670
     3  C(13)              0.00109       1.22308       0.43643       0.40798
     4  C(13)              0.01060      11.92184       4.25401       3.97670
     5  C(13)              0.01500      16.86791       6.01889       5.62653
     6  C(13)              0.01217      13.67723       4.88037       4.56223
     7  H(1)              -0.00058      -2.58825      -0.92355      -0.86335
     8  H(1)              -0.00022      -1.00407      -0.35828      -0.33492
     9  H(1)              -0.00022      -1.00407      -0.35828      -0.33492
    10  H(1)              -0.00058      -2.58825      -0.92355      -0.86335
    11  H(1)              -0.00056      -2.50154      -0.89261      -0.83442
    12  F(19)             -0.00028      -1.17010      -0.41752      -0.39030
 --------------------------------------------------------
       Center         ----  Spin Dipole Couplings  ----
                      3XX-RR        3YY-RR        3ZZ-RR
 --------------------------------------------------------
     1   Atom        0.004802      0.000913     -0.005715
     2   Atom        0.000845      0.001436     -0.002281
     3   Atom        0.001084      0.000653     -0.001737
     4   Atom        0.000845      0.001436     -0.002281
     5   Atom        0.004802      0.000913     -0.005715
     6   Atom       -0.002060      0.008410     -0.006350
     7   Atom        0.003388     -0.000288     -0.003100
     8   Atom        0.001574     -0.000022     -0.001552
     9   Atom        0.001574     -0.000022     -0.001552
    10   Atom        0.003388     -0.000288     -0.003100
    11   Atom       -0.000587      0.003700     -0.003113
    12   Atom       -0.005459      0.012128     -0.006669
 --------------------------------------------------------
                        XY            XZ            YZ
 --------------------------------------------------------
     1   Atom        0.004818      0.000000      0.000000
     2   Atom       -0.000679      0.000000      0.000000
     3   Atom       -0.000000      0.000000     -0.000000
     4   Atom        0.000679      0.000000      0.000000
     5   Atom       -0.004818     -0.000000      0.000000
     6   Atom        0.000000     -0.000000     -0.000000
     7   Atom        0.002111      0.000000      0.000000
     8   Atom       -0.000594      0.000000      0.000000
     9   Atom        0.000594     -0.000000     -0.000000
    10   Atom       -0.002111     -0.000000      0.000000
    11   Atom       -0.000000      0.000000      0.000000
    12   Atom        0.000000     -0.000000     -0.000000
 --------------------------------------------------------


 ---------------------------------------------------------------------------------
              Anisotropic Spin Dipole Couplings in Principal Axis System
 ---------------------------------------------------------------------------------

       Atom             a.u.   MegaHertz   Gauss  10(-4) cm-1        Axes

              Baa    -0.0057    -0.767    -0.274    -0.256 -0.0000 -0.0000  1.0000
     1 C(13)  Bbb    -0.0023    -0.314    -0.112    -0.105 -0.5594  0.8289  0.0000
              Bcc     0.0081     1.081     0.386     0.360  0.8289  0.5594  0.0000
 
              Baa    -0.0023    -0.306    -0.109    -0.102 -0.0000 -0.0000  1.0000
     2 C(13)  Bbb     0.0004     0.054     0.019     0.018  0.8363  0.5483  0.0000
              Bcc     0.0019     0.252     0.090     0.084 -0.5483  0.8363  0.0000
 
              Baa    -0.0017    -0.233    -0.083    -0.078 -0.0000  0.0000  1.0000
     3 C(13)  Bbb     0.0007     0.088     0.031     0.029  0.0000  1.0000 -0.0000
              Bcc     0.0011     0.145     0.052     0.049  1.0000 -0.0000  0.0000
 
              Baa    -0.0023    -0.306    -0.109    -0.102 -0.0000 -0.0000  1.0000
     4 C(13)  Bbb     0.0004     0.054     0.019     0.018  0.8363 -0.5483  0.0000
              Bcc     0.0019     0.252     0.090     0.084  0.5483  0.8363  0.0000
 
              Baa    -0.0057    -0.767    -0.274    -0.256  0.0000 -0.0000  1.0000
     5 C(13)  Bbb    -0.0023    -0.314    -0.112    -0.105  0.5594  0.8289  0.0000
              Bcc     0.0081     1.081     0.386     0.360  0.8289 -0.5594 -0.0000
 
              Baa    -0.0063    -0.852    -0.304    -0.284  0.0000  0.0000  1.0000
     6 C(13)  Bbb    -0.0021    -0.276    -0.099    -0.092  1.0000 -0.0000 -0.0000
              Bcc     0.0084     1.129     0.403     0.376  0.0000  1.0000 -0.0000
 
              Baa    -0.0031    -1.654    -0.590    -0.552 -0.0000 -0.0000  1.0000
     7 H(1)   Bbb    -0.0012    -0.667    -0.238    -0.222 -0.4143  0.9101  0.0000
              Bcc     0.0043     2.321     0.828     0.774  0.9101  0.4143  0.0000
 
              Baa    -0.0016    -0.828    -0.296    -0.276 -0.0000 -0.0000  1.0000
     8 H(1)   Bbb    -0.0002    -0.117    -0.042    -0.039  0.3146  0.9492  0.0000
              Bcc     0.0018     0.945     0.337     0.315  0.9492 -0.3146  0.0000
 
              Baa    -0.0016    -0.828    -0.296    -0.276  0.0000 -0.0000  1.0000
     9 H(1)   Bbb    -0.0002    -0.117    -0.042    -0.039 -0.3146  0.9492  0.0000
              Bcc     0.0018     0.945     0.337     0.315  0.9492  0.3146 -0.0000
 
              Baa    -0.0031    -1.654    -0.590    -0.552  0.0000 -0.0000  1.0000
    10 H(1)   Bbb    -0.0012    -0.667    -0.238    -0.222  0.4143  0.9101  0.0000
              Bcc     0.0043     2.321     0.828     0.774  0.9101 -0.4143 -0.0000
 
              Baa    -0.0031    -1.661    -0.593    -0.554 -0.0000 -0.0000  1.0000
    11 H(1)   Bbb    -0.0006    -0.313    -0.112    -0.104  1.0000  0.0000  0.0000
              Bcc     0.0037     1.974     0.704     0.658 -0.0000  1.0000  0.0000
 
              Baa    -0.0067    -3.349    -1.195    -1.117  0.0000  0.0000  1.0000
    12 F(19)  Bbb    -0.0055    -2.742    -0.978    -0.914  1.0000 -0.0000 -0.0000
              Bcc     0.0121     6.091     2.173     2.032  0.0000  1.0000 -0.0000
 

 ---------------------------------------------------------------------------------

 No NMR shielding tensors so no spin-rotation constants.
 Leave Link  601 at Wed Jan 29 15:34:40 2025, MaxMem=   104857600 cpu:               0.1 elap:               0.1
 (Enter /sw/cluster/pub/apps//g16/l701.exe)
 ... and contract with generalized density number  0.
 Compute integral first derivatives.
 Leave Link  701 at Wed Jan 29 15:34:40 2025, MaxMem=   104857600 cpu:               0.1 elap:               0.0
 (Enter /sw/cluster/pub/apps//g16/l702.exe)
 L702 exits ... SP integral derivatives will be done elsewhere.
 Leave Link  702 at Wed Jan 29 15:34:40 2025, MaxMem=   104857600 cpu:               0.0 elap:               0.0
 (Enter /sw/cluster/pub/apps//g16/l703.exe)
 Integral derivatives from FoFJK, PRISM(SPDF).
 Compute integral first derivatives, UseDBF=F ICtDFT=           0.
 Calling FoFJK, ICntrl=      2127 FMM=F ISym2X=0 I1Cent= 0 IOpClX= 1 NMat=1 NMatS=1 NMatT=0.
 FoFJK:  IHMeth= 1 ICntrl=    2127 DoSepK=F KAlg= 0 I1Cent=           0 FoldK=F
 IRaf=         0 NMat=       1 IRICut=       1 DoRegI=T DoRafI=F ISym2E= 0 IDoP0=0 IntGTp=1.
 FoFCou: FMM=F IPFlag=           0 FMFlag=      100000 FMFlg1=         800
         NFxFlg=           0 DoJE=F BraDBF=F KetDBF=F FulRan=T
         wScrn=  0.000000 ICntrl=      2127 IOpCl=  1 I1Cent=           0 NGrid=           0
         NMat0=    1 NMatS0=      1 NMatT0=    0 NMatD0=    1 NMtDS0=    0 NMtDT0=    0
 Symmetry not used in FoFCou.
 Leave Link  703 at Wed Jan 29 15:34:48 2025, MaxMem=   104857600 cpu:               8.3 elap:               8.4
 (Enter /sw/cluster/pub/apps//g16/l716.exe)
 Dipole        =-1.28835254D-09-2.32965762D+00-4.72434931D-09
 -------------------------------------------------------------------
 Center     Atomic                   Forces (Hartrees/Bohr)
 Number     Number              X              Y              Z
 -------------------------------------------------------------------
      1        6          -0.002135122   -0.000373124    0.000000001
      2        6          -0.001803065    0.000772249   -0.000000001
      3        6          -0.000000000    0.007453693    0.000000001
      4        6           0.001803065    0.000772249   -0.000000001
      5        6           0.002135122   -0.000373124    0.000000001
      6        6          -0.000000000   -0.003982502   -0.000000001
      7        1           0.001585285    0.001039524   -0.000000000
      8        1           0.001851382   -0.000381127    0.000000000
      9        1          -0.001851382   -0.000381127    0.000000000
     10        1          -0.001585285    0.001039524   -0.000000000
     11        1           0.000000000    0.001884143    0.000000000
     12        9           0.000000000   -0.007470376   -0.000000000
 -------------------------------------------------------------------
 Cartesian Forces:  Max     0.007470376 RMS     0.002122619
 Leave Link  716 at Wed Jan 29 15:34:49 2025, MaxMem=   104857600 cpu:               0.0 elap:               0.0
 (Enter /sw/cluster/pub/apps//g16/l103.exe)

 GradGradGradGradGradGradGradGradGradGradGradGradGradGradGradGradGradGrad
 Berny optimization.
 FormGI is forming the generalized inverse of G from B-inverse, IUseBI=4.
 Internal  Forces:  Max     0.007470376 RMS     0.001212960
 Search for a local minimum.
 Step number   1 out of a maximum of   64
 All quantities printed in internal units (Hartrees-Bohrs-Radians)
 RMS Force = .12130D-02 SwitMx=.10000D-02 MixMth= 1
 Mixed Optimization -- RFO/linear search
 Second derivative matrix not updated -- first step.
 ITU=  0
     Eigenvalues ---    0.02210   0.02210   0.02210   0.02210   0.02231
     Eigenvalues ---    0.02256   0.02266   0.02296   0.02316   0.16000
     Eigenvalues ---    0.16000   0.16000   0.16000   0.16000   0.22000
     Eigenvalues ---    0.22000   0.23509   0.25000   0.35404   0.35404
     Eigenvalues ---    0.35460   0.35534   0.35534   0.42881   0.43279
     Eigenvalues ---    0.47164   0.47171   0.47959   0.48405   0.56044
 RFO step:  Lambda=-1.70963651D-04 EMin= 2.20955875D-02
 Linear search not attempted -- first point.
 Iteration  1 RMS(Cart)=  0.00310342 RMS(Int)=  0.00000510
 Iteration  2 RMS(Cart)=  0.00000587 RMS(Int)=  0.00000029
 Iteration  3 RMS(Cart)=  0.00000000 RMS(Int)=  0.00000029
 ITry= 1 IFail=0 DXMaxC= 1.40D-02 DCOld= 1.00D+10 DXMaxT= 3.00D-01 DXLimC= 3.00D+00 Rises=F
 Variable       Old X    -DE/DX   Delta X   Delta X   Delta X     New X
                                 (Linear)    (Quad)   (Total)
    R1        2.62840  -0.00038   0.00000  -0.00082  -0.00082   2.62758
    R2        2.62830  -0.00127   0.00000  -0.00286  -0.00286   2.62545
    R3        2.05023   0.00189   0.00000   0.00534   0.00534   2.05558
    R4        2.61320   0.00031   0.00000   0.00082   0.00082   2.61401
    R5        2.04817   0.00178   0.00000   0.00500   0.00500   2.05317
    R6        2.61320   0.00031   0.00000   0.00082   0.00082   2.61401
    R7        2.54216   0.00747   0.00000   0.01333   0.01333   2.55549
    R8        2.62840  -0.00038   0.00000  -0.00082  -0.00082   2.62758
    R9        2.04817   0.00178   0.00000   0.00500   0.00500   2.05317
   R10        2.62830  -0.00127   0.00000  -0.00286  -0.00286   2.62545
   R11        2.05023   0.00189   0.00000   0.00534   0.00534   2.05558
   R12        2.04934   0.00188   0.00000   0.00531   0.00531   2.05465
    A1        2.10311  -0.00013   0.00000  -0.00099  -0.00099   2.10212
    A2        2.08349   0.00019   0.00000   0.00124   0.00124   2.08472
    A3        2.09659  -0.00005   0.00000  -0.00024  -0.00024   2.09635
    A4        2.06587  -0.00012   0.00000  -0.00018  -0.00018   2.06570
    A5        2.12617  -0.00060   0.00000  -0.00401  -0.00401   2.12216
    A6        2.09114   0.00072   0.00000   0.00418   0.00418   2.09532
    A7        2.13807  -0.00028   0.00000  -0.00045  -0.00045   2.13761
    A8        2.07256   0.00014   0.00000   0.00023   0.00023   2.07279
    A9        2.07256   0.00014   0.00000   0.00023   0.00023   2.07279
   A10        2.06587  -0.00012   0.00000  -0.00018  -0.00018   2.06570
   A11        2.09114   0.00072   0.00000   0.00418   0.00418   2.09532
   A12        2.12617  -0.00060   0.00000  -0.00401  -0.00401   2.12216
   A13        2.10311  -0.00013   0.00000  -0.00099  -0.00099   2.10212
   A14        2.08349   0.00019   0.00000   0.00124   0.00124   2.08472
   A15        2.09659  -0.00005   0.00000  -0.00024  -0.00024   2.09635
   A16        2.09034   0.00078   0.00000   0.00280   0.00280   2.09314
   A17        2.09642  -0.00039   0.00000  -0.00140  -0.00140   2.09502
   A18        2.09642  -0.00039   0.00000  -0.00140  -0.00140   2.09502
    D1        0.00000  -0.00000   0.00000  -0.00000  -0.00000   0.00000
    D2        3.14159  -0.00000   0.00000  -0.00000   0.00000   3.14159
    D3        3.14159  -0.00000   0.00000  -0.00000   0.00000   3.14159
    D4       -0.00000   0.00000   0.00000   0.00000   0.00000   0.00000
    D5       -0.00000   0.00000   0.00000   0.00000   0.00000   0.00000
    D6        3.14159   0.00000   0.00000   0.00000   0.00000   3.14159
    D7        3.14159   0.00000   0.00000   0.00000   0.00000   3.14159
    D8        0.00000  -0.00000   0.00000  -0.00000  -0.00000   0.00000
    D9       -0.00000   0.00000   0.00000   0.00000   0.00000   0.00000
   D10        3.14159  -0.00000   0.00000  -0.00000  -0.00000   3.14159
   D11        3.14159   0.00000   0.00000   0.00000   0.00000  -3.14159
   D12        0.00000  -0.00000   0.00000  -0.00000  -0.00000  -0.00000
   D13        0.00000  -0.00000   0.00000  -0.00000  -0.00000  -0.00000
   D14        3.14159  -0.00000   0.00000  -0.00000  -0.00000   3.14159
   D15        3.14159   0.00000   0.00000   0.00000   0.00000  -3.14159
   D16       -0.00000   0.00000   0.00000   0.00000   0.00000   0.00000
   D17       -0.00000   0.00000   0.00000   0.00000   0.00000   0.00000
   D18        3.14159   0.00000   0.00000   0.00000   0.00000   3.14159
   D19        3.14159   0.00000   0.00000   0.00000   0.00000   3.14159
   D20        0.00000  -0.00000   0.00000  -0.00000  -0.00000   0.00000
   D21        0.00000  -0.00000   0.00000  -0.00000  -0.00000   0.00000
   D22        3.14159  -0.00000   0.00000  -0.00000  -0.00000   3.14159
   D23        3.14159  -0.00000   0.00000  -0.00000   0.00000   3.14159
   D24       -0.00000   0.00000   0.00000   0.00000   0.00000   0.00000
         Item               Value     Threshold  Converged?
 Maximum Force            0.007470     0.000450     NO 
 RMS     Force            0.001213     0.000300     NO 
 Maximum Displacement     0.014023     0.001800     NO 
 RMS     Displacement     0.003105     0.001200     NO 
 Predicted change in Energy=-8.551826D-05
 Lowest energy point so far.  Saving SCF results.
 GradGradGradGradGradGradGradGradGradGradGradGradGradGradGradGradGradGrad

 Leave Link  103 at Wed Jan 29 15:34:49 2025, MaxMem=   104857600 cpu:               0.0 elap:               0.0
 (Enter /sw/cluster/pub/apps//g16/l202.exe)
                          Input orientation:                          
 ---------------------------------------------------------------------
 Center     Atomic      Atomic             Coordinates (Angstroms)
 Number     Number       Type             X           Y           Z
 ---------------------------------------------------------------------
      1          6           0        1.202755    0.691112    0.000000
      2          6           0        1.212616   -0.699310    0.000000
      3          6           0       -0.000000   -1.364902    0.000000
      4          6           0       -1.212616   -0.699310   -0.000000
      5          6           0       -1.202755    0.691112    0.000000
      6          6           0        0.000000    1.386533   -0.000000
      7          1           0        2.146188    1.232560   -0.000000
      8          1           0        2.142112   -1.261895   -0.000000
      9          1           0       -2.142112   -1.261895   -0.000000
     10          1           0       -2.146188    1.232560    0.000000
     11          1           0        0.000000    2.473809   -0.000000
     12          9           0        0.000000   -2.717207   -0.000000
 ---------------------------------------------------------------------
                    Distance matrix (angstroms):
                    1          2          3          4          5
     1  C    0.000000
     2  C    1.390457   0.000000
     3  C    2.381977   1.383275   0.000000
     4  C    2.786986   2.425231   1.383275   0.000000
     5  C    2.405511   2.786986   2.381977   1.390457   0.000000
     6  C    1.389327   2.412712   2.751436   2.412712   1.389327
     7  H    1.087764   2.145618   3.369411   3.874749   3.392431
     8  H    2.167171   1.086493   2.144588   3.401574   3.873290
     9  H    3.873290   3.401574   2.144588   1.086493   2.167171
    10  H    3.392431   3.874749   3.369411   2.145618   1.087764
    11  H    2.150495   3.396927   3.838711   3.396927   2.150495
    12  F    3.614313   2.354219   1.352305   2.354219   3.614313
                    6          7          8          9         10
     6  C    0.000000
     7  H    2.151704   0.000000
     8  H    3.406291   2.494459   0.000000
     9  H    3.406291   4.961031   4.284225   0.000000
    10  H    2.151704   4.292376   4.961031   2.494459   0.000000
    11  H    1.087275   2.479278   4.306290   4.306290   2.479278
    12  F    4.103740   4.495196   2.589706   2.589706   4.495196
                   11         12
    11  H    0.000000
    12  F    5.191016   0.000000
 Symmetry turned off by external request.
 Stoichiometry    C6H5F(1-,2)
 Framework group  CS[SG(C2HF),X(C4H4)]
 Deg. of freedom    17
 Full point group                 CS      NOp   2
 Rotational constants (GHZ):           5.7077367           2.5757714           1.7748307
 Leave Link  202 at Wed Jan 29 15:34:49 2025, MaxMem=   104857600 cpu:               0.0 elap:               0.0
 (Enter /sw/cluster/pub/apps//g16/l301.exe)
 Standard basis: 6-311++G(d,p) (5D, 7F)
 Ernie: Thresh=  0.10000D-02 Tol=  0.10000D-05 Strict=F.
   189 basis functions,   297 primitive gaussians,   196 cartesian basis functions
    26 alpha electrons       25 beta electrons
       nuclear repulsion energy       269.7999486622 Hartrees.
 IExCor= 1009 DFT=T Ex+Corr=PBE1PBE ExCW=0 ScaHFX=  0.250000
 ScaDFX=  0.750000  0.750000  1.000000  1.000000 ScalE2=  1.000000  1.000000
 IRadAn=      5 IRanWt=     -1 IRanGd=            0 ICorTp=0 IEmpDi=  4
 NAtoms=   12 NActive=   12 NUniq=   12 SFac= 1.00D+00 NAtFMM=   60 NAOKFM=F Big=F
 Integral buffers will be    131072 words long.
 Raffenetti 2 integral format.
 Two-electron integral symmetry is turned off.
 Leave Link  301 at Wed Jan 29 15:34:49 2025, MaxMem=   104857600 cpu:               0.0 elap:               0.0
 (Enter /sw/cluster/pub/apps//g16/l302.exe)
 NPDir=0 NMtPBC=     1 NCelOv=     1 NCel=       1 NClECP=     1 NCelD=      1
         NCelK=      1 NCelE2=     1 NClLst=     1 CellRange=     0.0.
 One-electron integrals computed using PRISM.
 NBasis=   189 RedAO= T EigKep=  1.57D-06  NBF=   189
 NBsUse=   189 1.00D-06 EigRej= -1.00D+00 NBFU=   189
 Precomputing XC quadrature grid using
 IXCGrd= 4 IRadAn=           5 IRanWt=          -1 IRanGd=           0 AccXCQ= 0.00D+00.
 Generated NRdTot=       0 NPtTot=           0 NUsed=           0 NTot=          32
 NSgBfM=   196   196   196   196   196 MxSgAt=    12 MxSgA2=    12.
 Leave Link  302 at Wed Jan 29 15:34:49 2025, MaxMem=   104857600 cpu:               0.1 elap:               0.1
 (Enter /sw/cluster/pub/apps//g16/l303.exe)
 DipDrv:  MaxL=1.
 Leave Link  303 at Wed Jan 29 15:34:49 2025, MaxMem=   104857600 cpu:               0.0 elap:               0.0
 (Enter /sw/cluster/pub/apps//g16/l401.exe)
 Initial guess from the checkpoint file:  "MFB-ANI.chk"
 B after Tr=    -0.000000   -0.002914    0.000000
         Rot=    1.000000   -0.000000    0.000000   -0.000000 Ang=   0.00 deg.
 Guess basis will be translated and rotated to current coordinates.
 JPrj=2 DoOrth=T DoCkMO=T.
 Initial guess <Sx>= 0.0000 <Sy>= 0.0000 <Sz>= 0.5000 <S**2>= 0.7501 S= 0.5000
 Leave Link  401 at Wed Jan 29 15:34:49 2025, MaxMem=   104857600 cpu:               0.0 elap:               0.0
 (Enter /sw/cluster/pub/apps//g16/l502.exe)
 Two-electron integral symmetry not used.
 UHF open shell SCF:
 Using DIIS extrapolation, IDIIS=  1040.
 NGot=   104857600 LenX=   104778092 LenY=   104739235
 Requested convergence on RMS density matrix=1.00D-08 within 128 cycles.
 Requested convergence on MAX density matrix=1.00D-06.
 Requested convergence on             energy=1.00D-06.
 No special actions if energy rises.
 Fock matrices will be formed incrementally for  20 cycles.

 Cycle   1  Pass 1  IDiag  1:
 FoFJK:  IHMeth= 1 ICntrl=       0 DoSepK=F KAlg= 0 I1Cent=           0 FoldK=F
 IRaf= 980000000 NMat=       1 IRICut=       1 DoRegI=T DoRafI=F ISym2E= 0 IDoP0=0 IntGTp=1.
 FoFCou: FMM=F IPFlag=           0 FMFlag=      100000 FMFlg1=           0
         NFxFlg=           0 DoJE=F BraDBF=F KetDBF=F FulRan=T
         wScrn=  0.000000 ICntrl=         0 IOpCl=  1 I1Cent=           0 NGrid=           0
         NMat0=    1 NMatS0=      1 NMatT0=    0 NMatD0=    1 NMtDS0=    0 NMtDT0=    0
 Symmetry not used in FoFCou.
 E= -331.177504214702    
 DIIS: error= 4.98D-04 at cycle   1 NSaved=   1.
 NSaved= 1 IEnMin= 1 EnMin= -331.177504214702     IErMin= 1 ErrMin= 4.98D-04
 ErrMax= 4.98D-04  0.00D+00 EMaxC= 1.00D-01 BMatC= 1.78D-04 BMatP= 1.78D-04
 IDIUse=3 WtCom= 9.95D-01 WtEn= 4.98D-03
 Coeff-Com:  0.100D+01
 Coeff-En:   0.100D+01
 Coeff:      0.100D+01
 Gap=     0.271 Goal=   None    Shift=    0.000
 Gap=     0.411 Goal=   None    Shift=    0.000
 RMSDP=1.53D-02 MaxDP=1.41D+00              OVMax= 6.11D-03

 Cycle   2  Pass 1  IDiag  1:
 RMSU=  1.51D-02    CP:  9.92D-01
 E= -331.177549066653     Delta-E=       -0.000044851950 Rises=F Damp=F
 DIIS: error= 8.13D-05 at cycle   2 NSaved=   2.
 NSaved= 2 IEnMin= 2 EnMin= -331.177549066653     IErMin= 2 ErrMin= 8.13D-05
 ErrMax= 8.13D-05  0.00D+00 EMaxC= 1.00D-01 BMatC= 5.11D-06 BMatP= 1.78D-04
 IDIUse=1 WtCom= 1.00D+00 WtEn= 0.00D+00
 Coeff-Com:  0.419D-01 0.958D+00
 Coeff:      0.419D-01 0.958D+00
 Gap=     0.026 Goal=   None    Shift=    0.000
 Gap=     0.245 Goal=   None    Shift=    0.000
 RMSDP=5.89D-03 MaxDP=4.97D-01 DE=-4.49D-05 OVMax= 2.07D-03

 Cycle   3  Pass 1  IDiag  1:
[...]
   D21        0.00000  -0.00000   0.00000   0.00000   0.00000   0.00000
   D22       -3.14159  -0.00000   0.00000   0.00000   0.00000  -3.14159
   D23        3.14159   0.00000   0.00000  -0.00000   0.00000   3.14159
   D24        0.00000  -0.00000   0.00000   0.00000   0.00000   0.00000
         Item               Value     Threshold  Converged?
 Maximum Force            0.000330     0.000450     YES
 RMS     Force            0.000077     0.000300     YES
 Maximum Displacement     0.001216     0.001800     YES
 RMS     Displacement     0.000215     0.001200     YES
 Predicted change in Energy=-6.327422D-07
 Optimization completed.
    -- Stationary point found.
                           ----------------------------
                           !   Optimized Parameters   !
                           ! (Angstroms and Degrees)  !
 --------------------------                            --------------------------
 ! Name  Definition              Value          Derivative Info.                !
 --------------------------------------------------------------------------------
 ! R1    R(1,2)                  1.3906         -DE/DX =    0.0001              !
 ! R2    R(1,6)                  1.3892         -DE/DX =    0.0001              !
 ! R3    R(1,7)                  1.088          -DE/DX =   -0.0001              !
 ! R4    R(2,3)                  1.3826         -DE/DX =   -0.0001              !
 ! R5    R(2,8)                  1.0866         -DE/DX =   -0.0001              !
 ! R6    R(3,4)                  1.3826         -DE/DX =   -0.0001              !
 ! R7    R(3,12)                 1.3552         -DE/DX =    0.0003              !
 ! R8    R(4,5)                  1.3906         -DE/DX =    0.0001              !
 ! R9    R(4,9)                  1.0866         -DE/DX =   -0.0001              !
 ! R10   R(5,6)                  1.3892         -DE/DX =    0.0001              !
 ! R11   R(5,10)                 1.088          -DE/DX =   -0.0001              !
 ! R12   R(6,11)                 1.0876         -DE/DX =   -0.0001              !
 ! A1    A(2,1,6)              120.4248         -DE/DX =    0.0                 !
 ! A2    A(2,1,7)              119.4522         -DE/DX =    0.0                 !
 ! A3    A(6,1,7)              120.123          -DE/DX =    0.0                 !
 ! A4    A(1,2,3)              118.3018         -DE/DX =   -0.0001              !
 ! A5    A(1,2,8)              121.5305         -DE/DX =    0.0                 !
 ! A6    A(3,2,8)              120.1677         -DE/DX =    0.0                 !
 ! A7    A(2,3,4)              122.587          -DE/DX =    0.0002              !
 ! A8    A(2,3,12)             118.7065         -DE/DX =   -0.0001              !
 ! A9    A(4,3,12)             118.7065         -DE/DX =   -0.0001              !
 ! A10   A(3,4,5)              118.3018         -DE/DX =   -0.0001              !
 ! A11   A(3,4,9)              120.1677         -DE/DX =    0.0                 !
 ! A12   A(5,4,9)              121.5305         -DE/DX =    0.0                 !
 ! A13   A(4,5,6)              120.4248         -DE/DX =    0.0                 !
 ! A14   A(4,5,10)             119.4522         -DE/DX =    0.0                 !
 ! A15   A(6,5,10)             120.123          -DE/DX =    0.0                 !
 ! A16   A(1,6,5)              119.9599         -DE/DX =    0.0                 !
 ! A17   A(1,6,11)             120.02           -DE/DX =    0.0                 !
 ! A18   A(5,6,11)             120.02           -DE/DX =    0.0                 !
 ! D1    D(6,1,2,3)              0.0            -DE/DX =    0.0                 !
 ! D2    D(6,1,2,8)           -180.0            -DE/DX =    0.0                 !
 ! D3    D(7,1,2,3)            180.0            -DE/DX =    0.0                 !
 ! D4    D(7,1,2,8)              0.0            -DE/DX =    0.0                 !
 ! D5    D(2,1,6,5)              0.0            -DE/DX =    0.0                 !
 ! D6    D(2,1,6,11)           180.0            -DE/DX =    0.0                 !
 ! D7    D(7,1,6,5)            180.0            -DE/DX =    0.0                 !
 ! D8    D(7,1,6,11)             0.0            -DE/DX =    0.0                 !
 ! D9    D(1,2,3,4)              0.0            -DE/DX =    0.0                 !
 ! D10   D(1,2,3,12)          -180.0            -DE/DX =    0.0                 !
 ! D11   D(8,2,3,4)           -180.0            -DE/DX =    0.0                 !
 ! D12   D(8,2,3,12)             0.0            -DE/DX =    0.0                 !
 ! D13   D(2,3,4,5)              0.0            -DE/DX =    0.0                 !
 ! D14   D(2,3,4,9)            180.0            -DE/DX =    0.0                 !
 ! D15   D(12,3,4,5)           180.0            -DE/DX =    0.0                 !
 ! D16   D(12,3,4,9)             0.0            -DE/DX =    0.0                 !
 ! D17   D(3,4,5,6)              0.0            -DE/DX =    0.0                 !
 ! D18   D(3,4,5,10)          -180.0            -DE/DX =    0.0                 !
 ! D19   D(9,4,5,6)            180.0            -DE/DX =    0.0                 !
 ! D20   D(9,4,5,10)             0.0            -DE/DX =    0.0                 !
 ! D21   D(4,5,6,1)              0.0            -DE/DX =    0.0                 !
 ! D22   D(4,5,6,11)          -180.0            -DE/DX =    0.0                 !
 ! D23   D(10,5,6,1)           180.0            -DE/DX =    0.0                 !
 ! D24   D(10,5,6,11)            0.0            -DE/DX =    0.0                 !
 --------------------------------------------------------------------------------
 GradGradGradGradGradGradGradGradGradGradGradGradGradGradGradGradGradGrad

 Leave Link  103 at Wed Jan 29 15:43:11 2025, MaxMem=   104857600 cpu:               0.0 elap:               0.0
 (Enter /sw/cluster/pub/apps//g16/l9999.exe)

 ----------------------------------------------------------------------

 Electric dipole moment (input orientation):
 (Debye = 10**-18 statcoulomb cm , SI units = C m)
                  (au)            (Debye)         (10**-30 SI)
   Tot        0.233494D+01      0.593483D+01      0.197965D+02
   x          0.000000D+00      0.000000D+00      0.000000D+00
   y         -0.233494D+01     -0.593483D+01     -0.197965D+02
   z          0.000000D+00      0.000000D+00      0.000000D+00

 Dipole polarizability, Alpha (input orientation).
 (esu units = cm**3 , SI units = C**2 m**2 J**-1)
 Alpha(0;0):
               (au)            (10**-24 esu)      (10**-40 SI)
   iso        0.225013D+04      0.333434D+03      0.370996D+03
   aniso      0.368394D+04      0.545904D+03      0.607400D+03
   xx         0.441927D+04      0.654868D+03      0.728639D+03
   yx         0.107295D+02      0.158995D+01      0.176906D+01
   yy         0.216296D+04      0.320518D+03      0.356625D+03
   zx        -0.138881D-01     -0.205800D-02     -0.228984D-02
   zy        -0.510422D-02     -0.756367D-03     -0.841572D-03
   zz         0.168148D+03      0.249170D+02      0.277239D+02

 ----------------------------------------------------------------------

 Dipole orientation:
     6          2.27307574         -0.00000001         -1.30590706
     6          2.29163896          0.00000000          1.32195458
     6         -0.00000000          0.00000000          2.57692865
     6         -2.29163896          0.00000001          1.32195457
     6         -2.27307574         -0.00000003         -1.30590707
     6          0.00000000         -0.00000002         -2.61932835
     1          4.05612596         -0.00000002         -2.32942399
     1          4.04942794          0.00000002          2.38340068
     1         -4.04942795          0.00000002          2.38340067
     1         -4.05612596         -0.00000003         -2.32942400
     1          0.00000000         -0.00000000         -4.67467079
     9         -0.00000001          0.00000005          5.13795639

 Electric dipole moment (dipole orientation):
 (Debye = 10**-18 statcoulomb cm , SI units = C m)
                  (au)            (Debye)         (10**-30 SI)
   Tot        0.233494D+01      0.593483D+01      0.197965D+02
   x          0.000000D+00      0.000000D+00      0.000000D+00
   y          0.000000D+00      0.000000D+00      0.000000D+00
   z          0.233494D+01      0.593483D+01      0.197965D+02

 Dipole polarizability, Alpha (dipole orientation).
 (esu units = cm**3 , SI units = C**2 m**2 J**-1)
 Alpha(0;0):
               (au)            (10**-24 esu)      (10**-40 SI)
   iso        0.225013D+04      0.333434D+03      0.370996D+03
   aniso      0.368394D+04      0.545904D+03      0.607400D+03
   xx         0.441927D+04      0.654868D+03      0.728639D+03
   yx        -0.138840D-01     -0.205740D-02     -0.228916D-02
   yy         0.168148D+03      0.249170D+02      0.277239D+02
   zx        -0.107295D+02     -0.158995D+01     -0.176906D+01
   zy         0.511793D-02      0.758399D-03      0.843832D-03
   zz         0.216296D+04      0.320518D+03      0.356625D+03

 ----------------------------------------------------------------------
 1\1\GINC-N02\Freq\UPBE1PBE\6-311++G(d,p)\C6H5F1(1-,2)\UNKNOWN\29-Jan-2
 025\0\\#P Geom=AllCheck Guess=TCheck SCRF=Check GenChk UPBE1PBE/6-311+
 +G(d,p) Freq\\MFB SP\\-1,2\C,1.2028598814,0.6910562584,-0.000000004\C,
 1.2126831133,-0.6995482361,-0.000000005\C,0.,-1.3636519171,-0.00000000
 78\C,-1.2126831133,-0.6995482361,0.0000000004\C,-1.2028598814,0.691056
 2583,-0.0000000079\C,0.,1.3860888728,0.0000000013\H,2.1464094227,1.232
 6780934,-0.0000000021\H,2.1428649869,-1.261241322,0.0000000005\H,-2.14
 28649869,-1.261241322,0.000000005\H,-2.1464094227,1.2326780934,-0.0000
 000069\H,-0.0000000001,2.4737292506,0.0000000152\F,0.,-2.7188894305,0.
 0000000093\\Version=ES64L-G16RevA.03\HF=-331.1775601\S2=0.750068\S2-1=
 0.\S2A=0.75\RMSD=3.607e-09\RMSF=1.758e-04\ZeroPoint=0.0917441\Thermal=
 0.0969449\Dipole=0.,-3.1672029,0.\DipoleDeriv=-0.2111653,0.2204984,-0.
 0001425,0.4148854,0.0823509,-0.0000895,0.0012532,0.0006281,0.6444861,1
 .2533933,0.2882526,0.000071,-0.7607957,-0.1558703,-0.0000355,0.0015383
 ,0.0005792,0.0169951,-1.4645279,-0.000973,0.0000045,0.0353313,0.256529
 5,0.0000074,-0.0024496,-0.0010085,-0.1726997,1.0867205,-0.3079039,-0.0
 000488,0.6695029,-0.1539291,-0.0000327,0.0010875,0.0004744,0.016995,0.
 0014069,-0.1958496,0.0001138,-0.5601162,0.0346847,-0.0000394,0.0003779
 ,0.000136,0.6444862,0.5044241,0.0036331,-0.0000067,0.1284747,-0.738755
 2,0.0001416,0.000927,0.0002433,0.3211993,-0.4899511,0.1796565,0.000027
 4,0.3467914,-0.6823136,0.0000187,-0.0001367,-0.0000665,-0.7978284,-0.8
 056288,0.4916487,0.0000043,-0.3918959,0.0943849,0.0000076,0.0001528,0.
 000068,-0.1224178,-0.8170364,-0.4948043,-0.0000017,0.3984938,0.1001055
 ,-0.0000009,0.0004056,0.0001843,-0.1224178,-0.4703556,-0.1895537,-0.00
 00155,-0.3339581,-0.6687475,0.0000035,-0.0009284,-0.0003514,-0.7978284
 ,-0.523249,0.0010651,0.0000007,0.0145523,-0.0064261,-0.0000123,-0.0009
 403,-0.0003534,-0.5428329,0.9359693,0.0043303,-0.0000065,0.0387341,0.8
 379862,0.0000314,-0.0012873,-0.0005335,-0.0881367\Polar=4419.2667952,1
 0.7295104,2162.9647754,-0.0138881,-0.0051042,168.1481617\Quadrupole=-7
 .0026099,-6.0695896,13.0721995,0.,0.,0.\PG=CS [SG(C2H1F1),X(C4H4)]\NIm
 ag=0\\0.71799638,0.01948137,0.69484842,-0.00001196,-0.00000748,0.13547
 058,-0.12395253,0.03334237,0.00000554,0.73216077,-0.03190801,-0.353383
 81,-0.00000265,-0.02454896,0.71039338,-0.00001569,-0.00000986,-0.05483
 369,0.00000778,-0.00000389,0.11979059,0.04235905,-0.08571240,0.0000003
 3,-0.31280837,-0.04527843,0.00000049,0.73383408,-0.02349159,-0.0268467
 5,0.00000021,-0.12568240,-0.15371346,0.00000078,0.00001316,0.64056186,
 0.00002453,0.00001540,-0.00238910,-0.00001195,0.00000591,-0.06293284,-
 0.00000075,-0.00000101,0.14907935,-0.02112458,0.03045755,-0.00000347,-
 0.05032210,-0.02512153,-0.00000533,-0.31290534,0.12573677,0.00000801,0
 .73194058,0.02899123,-0.05089264,-0.00000252,0.02511368,0.06007161,-0.
 00000358,0.04522427,-0.15370356,0.00000549,0.02443730,0.71033480,-0.00
 001074,-0.00000674,-0.00074798,0.00000517,-0.00000254,0.00673225,0.000
 00032,0.00000037,-0.06293284,-0.00000341,-0.00000237,0.11979060,-0.054
 88819,0.02516884,0.00000930,-0.02115650,-0.02901044,0.00001251,0.04252
 523,0.02342044,-0.00001943,-0.12368396,0.03209076,0.00000847,0.7176559
 2,-0.02525286,0.06340375,-0.00000269,-0.03032417,-0.05096000,-0.000004
 29,0.08561782,-0.02672533,0.00000639,-0.03365712,-0.35355814,-0.000002
 70,-0.01914567,0.69449397,-0.00000390,-0.00000245,0.00593498,0.0000019
 5,-0.00000097,-0.00074797,0.00000012,0.00000021,-0.00238911,-0.0000013
 5,-0.00000090,-0.05483371,0.00000312,-0.00000109,0.13547064,-0.2941608
 9,0.06670049,-0.00000056,0.03548934,0.07352243,-0.00000073,-0.08048577
 ,-0.00001798,0.00000115,0.03559525,-0.07346378,-0.00000050,-0.29432167
 ,-0.06660211,-0.00000018,0.68330180,0.13089697,-0.18079590,0.00001159,
 0.02495453,-0.02491904,0.00001559,0.00009501,-0.00069606,-0.00002422,-
 0.02480588,-0.02480585,0.00001057,-0.13110819,-0.18052287,0.00000387,-
 0.00009389,0.73360802,-0.00001002,-0.00000632,-0.05835222,0.00000523,-
 0.00000269,0.00374796,0.00000035,0.00000076,-0.00363399,-0.00000381,-0
 .00000243,0.00374796,0.00000815,-0.00000314,-0.05835224,-0.00000047,0.
 00001016,0.12647560,-0.26356093,-0.11856003,0.00000270,0.00577139,0.00
 170926,0.00000304,0.00080250,0.00011349,-0.00000496,-0.00012631,0.0010
 3375,0.00000224,-0.00381107,0.00295948,0.00000074,-0.01790160,-0.01264
 277,0.00000168,0.27745486,-0.11800116,-0.12607029,0.00000168,-0.026765
 72,-0.01199158,0.00000207,0.00155217,-0.00440456,-0.00000329,0.0004741
 7,-0.00072517,0.00000146,0.00240981,-0.00063911,0.00000051,0.01464757,
 0.01273571,0.00000125,0.12680189,0.12998249,0.00000132,0.00000082,-0.0
 4025759,-0.00000062,0.00000030,0.00333236,-0.00000004,-0.00000003,0.00
 880780,0.00000039,0.00000028,-0.00191895,-0.00000103,0.00000030,0.0063
 3618,0.00000006,-0.00000128,0.00405114,-0.00000029,-0.00000018,0.02699
 011,0.00617846,-0.00046649,0.00000034,-0.26395183,0.12039292,0.0000004
 7,-0.01821386,0.01764776,-0.00000073,-0.00383795,-0.00370060,0.0000003
 2,0.00038203,-0.00102526,0.00000012,0.00133216,-0.00011034,0.00000032,
 -0.00065201,-0.00004192,-0.00000004,0.27571976,0.02716979,-0.01003913,
 0.00000064,0.12266087,-0.12836126,0.00000083,-0.01376448,0.00961976,-0
 .00000130,-0.00296685,-0.00098096,0.00000057,-0.00055422,-0.00133249,0
 .00000021,-0.00086174,-0.00542183,0.00000053,0.00007506,0.00166558,-0.
 00000007,-0.13353162,0.13257450,-0.00000150,-0.00000094,0.00244167,0.0
 0000072,-0.00000035,-0.03335988,0.00000004,0.00000005,0.00482625,-0.00
 000047,-0.00000033,0.00554164,0.00000118,-0.00000037,-0.00198456,-0.00
 000007,0.00000147,0.00792890,0.00000032,0.00000021,-0.00414289,0.00000
 005,0.00000008,0.02317710,0.00039405,0.00103886,-0.00000007,-0.0038395
 7,0.00370017,-0.00000018,-0.01821961,-0.01764177,0.00000025,-0.2639662
 0,-0.12039900,-0.00000009,0.00618790,0.00044625,-0.00000005,0.00133887
 ,0.00011118,-0.00000016,0.00011473,0.00000108,0.,-0.00013498,-0.001059
 96,-0.00000001,0.27571850,0.00062914,-0.00128805,-0.00000010,0.0029131
 1,-0.00095189,-0.00000010,0.01376910,0.00959770,0.00000017,-0.12259922
 ,-0.12832679,-0.00000008,-0.02725582,-0.00997975,-0.00000002,0.0008570
 7,-0.00551734,-0.00000005,-0.00014880,0.00008909,0.00000001,0.00105623
 ,0.00034514,-0.00000001,0.13353550,0.13256968,-0.00000397,-0.00000249,
 -0.00198456,0.00000189,-0.00000092,0.00554164,0.00000012,0.00000012,0.
 00482625,-0.00000123,-0.00000086,-0.03335988,0.00000312,-0.00000097,0.
 00244167,-0.00000019,0.00000389,0.00792891,0.00000085,0.00000054,-0.00
 090236,0.00000012,0.00000021,0.00036012,-0.00000003,-0.00000003,0.0231
 7710,-0.00391697,-0.00308257,-0.00000161,-0.00003637,-0.00105610,-0.00
 000172,0.00079053,-0.00008383,0.00000286,0.00573162,-0.00175765,-0.000
 00130,-0.26351389,0.11857307,-0.00000042,-0.01789992,0.01273679,-0.000
 00090,0.00024342,0.00129798,0.00000017,0.00012522,0.00015425,-0.000000
 19,-0.00065065,-0.00007561,-0.00000050,0.27747697,-0.00233828,-0.00058
 489,0.00000025,-0.00054376,-0.00069271,0.00000038,-0.00153933,-0.00444
 192,-0.00000058,0.02684669,-0.01194234,0.00000024,0.11791190,-0.126000
 73,0.00000010,-0.01465897,0.01263455,0.00000027,-0.00127634,0.00005480
 ,-0.00000003,-0.00000726,0.00009171,0.00000003,0.00004670,0.00165758,0
 .00000009,-0.12681513,0.12997484,0.00000947,0.00000595,0.00633619,-0.0
 0000469,0.00000234,-0.00191895,-0.00000030,-0.00000047,0.00880780,0.00
 000321,0.00000216,0.00333236,-0.00000755,0.00000258,-0.04025760,0.0000
 0044,-0.00000940,0.00405113,-0.00000184,-0.00000125,0.00053445,-0.0000
 0029,-0.00000050,-0.00090236,0.00000011,0.00000006,-0.00414289,0.00000
 104,-0.00000023,0.02699011,0.00343885,0.02805918,0.00000002,-0.0037103
 2,0.00225825,0.00000007,-0.00229186,0.00000285,-0.00000009,-0.00374608
 ,-0.00227851,0.00000003,0.00351163,-0.02809679,0.00000002,-0.05729169,
 0.00004052,0.00000007,0.00120276,-0.00066436,0.,0.00011954,0.00129579,
 0.,0.00011766,-0.00129387,0.00000001,0.00119204,0.00067054,-0.00000004
 ,0.05693751,0.00045753,-0.00977845,-0.00000135,0.00243977,0.00001135,-
 0.00000138,-0.00000088,0.00034279,0.00000233,-0.00241083,0.00000512,-0
 .00000107,-0.00049317,-0.00970595,-0.00000033,-0.00000360,-0.33209695,
 -0.00000068,-0.00131022,0.00001476,0.00000014,-0.00096154,-0.00007745,
 -0.00000015,0.00096679,-0.00008450,-0.00000041,0.00132429,-0.00000526,
 0.00000084,-0.00000285,0.35111921,0.00000960,0.00000603,0.00120371,-0.
 00000476,0.00000238,0.00753574,-0.00000030,-0.00000048,-0.00010563,0.0
 0000327,0.00000219,0.00753575,-0.00000766,0.00000263,0.00120370,0.0000
 0045,-0.00000954,-0.03596980,-0.00000186,-0.00000127,-0.00332319,-0.00
 000029,-0.00000051,0.00021048,0.00000011,0.00000006,0.00021048,0.00000
 105,-0.00000024,-0.00332318,-0.00000005,0.00000085,0.02596477,-0.00876
 270,0.00357284,-0.00000056,0.00635610,-0.04465955,-0.00000071,-0.07538
 659,-0.00001690,0.00000113,0.00644507,0.04470856,-0.00000050,-0.008887
 43,-0.00349264,-0.00000018,0.00500412,-0.00007395,-0.00000044,0.000462
 25,-0.00171151,0.00000006,0.00293344,0.00138311,-0.00000007,0.00293930
 ,-0.00138684,-0.00000018,0.00045798,0.00170323,0.00000043,0.00051996,-
 0.00000529,0.00000044,0.06791851,-0.00663414,0.00142774,0.00000243,-0.
 00355931,-0.04550260,0.00000344,0.00002400,-0.28959046,-0.00000528,0.0
 0360896,-0.04547608,0.00000228,0.00656579,0.00152664,0.00000086,-0.000
 02550,-0.00420245,0.00000233,0.00124522,-0.00071172,-0.00000027,0.0007
 4812,0.00191643,0.00000032,-0.00074580,0.00188914,0.00000083,-0.001215
 51,-0.00074563,-0.00000207,0.00000925,0.00025533,-0.00000211,-0.000021
 06,0.37921366,0.00001287,0.00000808,0.00717802,-0.00000626,0.00000309,
 0.00711279,-0.00000039,-0.00000052,-0.04196394,0.00000419,0.00000288,0
 .00711280,-0.00001019,0.00000334,0.00717801,0.00000060,-0.00001270,-0.
 00162335,-0.00000261,-0.00000173,0.00049292,-0.00000038,-0.00000068,-0
 .00409647,0.00000013,0.00000009,-0.00409647,0.00000151,-0.00000030,0.0
 0049293,-0.00000005,0.00000123,-0.00114283,0.00000059,-0.00000277,0.02
 335561\\-0.00008939,-0.00012564,0.,-0.00012478,0.00037825,0.,0.,-0.000
 72713,0.,0.00012478,0.00037825,0.,0.00008939,-0.00012564,0.,0.,-0.0002
 0368,0.,0.00009128,0.00005824,0.,0.00011078,-0.00006654,0.,-0.00011078
 ,-0.00006654,0.,-0.00009128,0.00005824,0.,0.,0.00011260,0.,0.,0.000329
 58,0.\\\@


 THOSE WHO ASPIRE NOT TO GUESS AND DIVINE,
 BUT TO DISCOVER AND KNOW, WHO PROPOSE NOT TO DEVISE 
 MIMIC AND FABULOUS WORLDS OF THEIR OWN, BUT TO 
 EXAMINE AND DISSECT THE NATURE OF THIS VERY WORLD 
 ITSELF, MUST GO TO THE FACTS THEMSELVES FOR EVERYTHING.

                               -- FRANCIS BACON, 1620
 Job cpu time:       0 days  0 hours  5 minutes 51.7 seconds.
 Elapsed time:       0 days  0 hours  5 minutes 52.2 seconds.
 File lengths (MBytes):  RWF=     95 Int=      0 D2E=      0 Chk=      5 Scr=      1
 Normal termination of Gaussian 16 at Wed Jan 29 15:43:11 2025.
