MFB SP                                                                  
SP        RPBE1PBE                                                    6-311++G(d,p)       
Number of atoms                            I               12
Info1-9                                    I   N=           9
          19          19           0           0           0         110
           1          18        -302
Full Title                                 C   N=           1
MFB SP      
Route                                      C   N=           4
#p PBE1PBE/6-311++G(d,p) density=current nosymm 
Charge                                     I                0
Multiplicity                               I                1
Number of electrons                        I               50
Number of alpha electrons                  I               25
Number of beta electrons                   I               25
Number of basis functions                  I              189
Number of independent functions            I              189
Number of point charges in /Mol/           I                0
Number of translation vectors              I                0
Atomic numbers                             I   N=          12
           6           6           6           6           6           6
           1           1           1           1           1           9
Nuclear charges                            R   N=          12
  6.00000000E+00  6.00000000E+00  6.00000000E+00  6.00000000E+00  6.00000000E+00
  6.00000000E+00  1.00000000E+00  1.00000000E+00  1.00000000E+00  1.00000000E+00
  1.00000000E+00  9.00000000E+00
Current cartesian coordinates              R   N=          36
  2.27350827E+00  1.30662083E+00 -3.77945225E-09  2.29108209E+00 -1.32171956E+00
  0.00000000E+00  0.00000000E+00 -2.57859371E+00 -7.55890450E-09 -2.29108209E+00
 -1.32171956E+00  1.88972612E-09 -2.27350827E+00  1.30662083E+00 -3.77945225E-09
  0.00000000E+00  2.62538645E+00  3.77945225E-09  4.05337771E+00  2.32422935E+00
  1.88972612E-09  4.03860141E+00 -2.38998141E+00 -1.88972612E-09 -4.03860141E+00
 -2.38998141E+00 -1.88972612E-09 -4.05337771E+00  2.32422935E+00  1.88972612E-09
  0.00000000E+00  4.67472829E+00  0.00000000E+00  0.00000000E+00 -5.12075374E+00
  5.66917837E-09
Number of symbols in /Mol/                 I                0
Force Field                                I                0
Atom Types                                 C   N=          12
                                                            
                                                            
                        
Int Atom Types                             I   N=          12
           0           0           0           0           0           0
           0           0           0           0           0           0
MM charges                                 R   N=          12
  0.00000000E+00  0.00000000E+00  0.00000000E+00  0.00000000E+00  0.00000000E+00
  0.00000000E+00  0.00000000E+00  0.00000000E+00  0.00000000E+00  0.00000000E+00
  0.00000000E+00  0.00000000E+00
Integer atomic weights                     I   N=          12
          12          12          12          12          12          12
           1           1           1           1           1          19
Real atomic weights                        R   N=          12
  1.20000000E+01  1.20000000E+01  1.20000000E+01  1.20000000E+01  1.20000000E+01
  1.20000000E+01  1.00782504E+00  1.00782504E+00  1.00782504E+00  1.00782504E+00
  1.00782504E+00  1.89984032E+01
Atom fragment info                         I   N=          12
           0           0           0           0           0           0
           0           0           0           0           0           0
Atom residue num                           I   N=          12
           0           0           0           0           0           0
           0           0           0           0           0           0
Nuclear spins                              I   N=          12
           0           0           0           0           0           0
           1           1           1           1           1           1
Nuclear ZEff                               R   N=          12
 -3.60000000E+00 -3.60000000E+00 -3.60000000E+00 -3.60000000E+00 -3.60000000E+00
 -3.60000000E+00 -1.00000000E+00 -1.00000000E+00 -1.00000000E+00 -1.00000000E+00
 -1.00000000E+00 -6.75000000E+00
Nuclear ZNuc                               R   N=          12
  6.00000000E+00  6.00000000E+00  6.00000000E+00  6.00000000E+00  6.00000000E+00
  6.00000000E+00  1.00000000E+00  1.00000000E+00  1.00000000E+00  1.00000000E+00
  1.00000000E+00  9.00000000E+00
Nuclear QMom                               R   N=          12
  0.00000000E+00  0.00000000E+00  0.00000000E+00  0.00000000E+00  0.00000000E+00
  0.00000000E+00  0.00000000E+00  0.00000000E+00  0.00000000E+00  0.00000000E+00
  0.00000000E+00  0.00000000E+00
Nuclear GFac                               R   N=          12
  0.00000000E+00  0.00000000E+00  0.00000000E+00  0.00000000E+00  0.00000000E+00
  0.00000000E+00  2.79284600E+00  2.79284600E+00  2.79284600E+00  2.79284600E+00
  2.79284600E+00  2.62886700E+00
MicOpt                                     I   N=          12
          -1          -1          -1          -1          -1          -1
          -1          -1          -1          -1          -1          -1
Number of residues                         I                0
Number of secondary structures             I                0
SymInf integers                            I   N=          26
           2           4           1           1           1          -1
          -1           1          -1           1           1           1
          -1           1           0           0           0           0
           0           0           0           0           0           0
           0           0
RotTr to input orientation                 R   N=          12
 -4.94182883E-10 -6.12323399E-17 -1.00000000E+00  1.00000000E+00 -1.83697020E-16
 -4.94182883E-10 -1.83697020E-16 -1.00000000E+00  6.12323400E-17  0.00000000E+00
 -8.28879753E-01 -1.13383567E-10
Number of contracted shells                I               67
Number of primitive shells                 I              126
Pure/Cartesian d shells                    I                0
Pure/Cartesian f shells                    I                0
Highest angular momentum                   I                2
Largest degree of contraction              I                6
Shell types                                I   N=          67
           0          -1          -1          -1          -1          -2
           0          -1          -1          -1          -1          -2
           0          -1          -1          -1          -1          -2
           0          -1          -1          -1          -1          -2
           0          -1          -1          -1          -1          -2
           0          -1          -1          -1          -1          -2
           0           0           0           0           1           0
           0           0           0           1           0           0
           0           0           1           0           0           0
           0           1           0           0           0           0
           1           0          -1          -1          -1          -1
          -2
Number of primitives per shell             I   N=          67
           6           3           1           1           1           1
           6           3           1           1           1           1
           6           3           1           1           1           1
           6           3           1           1           1           1
           6           3           1           1           1           1
           6           3           1           1           1           1
           3           1           1           1           1           3
           1           1           1           1           3           1
           1           1           1           3           1           1
           1           1           3           1           1           1
           1           6           3           1           1           1
           1
Shell to atom map                          I   N=          67
           1           1           1           1           1           1
           2           2           2           2           2           2
           3           3           3           3           3           3
           4           4           4           4           4           4
           5           5           5           5           5           5
           6           6           6           6           6           6
           7           7           7           7           7           8
           8           8           8           8           9           9
           9           9           9          10          10          10
          10          10          11          11          11          11
          11          12          12          12          12          12
          12
Primitive exponents                        R   N=         126
  4.56324000E+03  6.82024000E+02  1.54973000E+02  4.44553000E+01  1.30290000E+01
  1.82773000E+00  2.09642000E+01  4.80331000E+00  1.45933000E+00  4.83456000E-01
  1.45585000E-01  4.38000000E-02  6.26000000E-01  4.56324000E+03  6.82024000E+02
  1.54973000E+02  4.44553000E+01  1.30290000E+01  1.82773000E+00  2.09642000E+01
  4.80331000E+00  1.45933000E+00  4.83456000E-01  1.45585000E-01  4.38000000E-02
  6.26000000E-01  4.56324000E+03  6.82024000E+02  1.54973000E+02  4.44553000E+01
  1.30290000E+01  1.82773000E+00  2.09642000E+01  4.80331000E+00  1.45933000E+00
  4.83456000E-01  1.45585000E-01  4.38000000E-02  6.26000000E-01  4.56324000E+03
  6.82024000E+02  1.54973000E+02  4.44553000E+01  1.30290000E+01  1.82773000E+00
  2.09642000E+01  4.80331000E+00  1.45933000E+00  4.83456000E-01  1.45585000E-01
  4.38000000E-02  6.26000000E-01  4.56324000E+03  6.82024000E+02  1.54973000E+02
  4.44553000E+01  1.30290000E+01  1.82773000E+00  2.09642000E+01  4.80331000E+00
  1.45933000E+00  4.83456000E-01  1.45585000E-01  4.38000000E-02  6.26000000E-01
  4.56324000E+03  6.82024000E+02  1.54973000E+02  4.44553000E+01  1.30290000E+01
  1.82773000E+00  2.09642000E+01  4.80331000E+00  1.45933000E+00  4.83456000E-01
  1.45585000E-01  4.38000000E-02  6.26000000E-01  3.38650000E+01  5.09479000E+00
  1.15879000E+00  3.25840000E-01  1.02741000E-01  3.60000000E-02  7.50000000E-01
  3.38650000E+01  5.09479000E+00  1.15879000E+00  3.25840000E-01  1.02741000E-01
  3.60000000E-02  7.50000000E-01  3.38650000E+01  5.09479000E+00  1.15879000E+00
  3.25840000E-01  1.02741000E-01  3.60000000E-02  7.50000000E-01  3.38650000E+01
  5.09479000E+00  1.15879000E+00  3.25840000E-01  1.02741000E-01  3.60000000E-02
  7.50000000E-01  3.38650000E+01  5.09479000E+00  1.15879000E+00  3.25840000E-01
  1.02741000E-01  3.60000000E-02  7.50000000E-01  1.14271000E+04  1.72235000E+03
  3.95746000E+02  1.15139000E+02  3.36026000E+01  4.91901000E+00  5.54441000E+01
  1.26323000E+01  3.71756000E+00  1.16545000E+00  3.21892000E-01  1.07600000E-01
  1.75000000E+00
Contraction coefficients                   R   N=         126
  1.96665025E-03  1.52306019E-02  7.61269097E-02  2.60801033E-01  6.16462078E-01
  2.21006028E-01  1.14660081E-01  9.19999648E-01 -3.03068213E-03  1.00000000E+00
  1.00000000E+00  1.00000000E+00  1.00000000E+00  1.96665025E-03  1.52306019E-02
  7.61269097E-02  2.60801033E-01  6.16462078E-01  2.21006028E-01  1.14660081E-01
  9.19999648E-01 -3.03068213E-03  1.00000000E+00  1.00000000E+00  1.00000000E+00
  1.00000000E+00  1.96665025E-03  1.52306019E-02  7.61269097E-02  2.60801033E-01
  6.16462078E-01  2.21006028E-01  1.14660081E-01  9.19999648E-01 -3.03068213E-03
  1.00000000E+00  1.00000000E+00  1.00000000E+00  1.00000000E+00  1.96665025E-03
  1.52306019E-02  7.61269097E-02  2.60801033E-01  6.16462078E-01  2.21006028E-01
  1.14660081E-01  9.19999648E-01 -3.03068213E-03  1.00000000E+00  1.00000000E+00
  1.00000000E+00  1.00000000E+00  1.96665025E-03  1.52306019E-02  7.61269097E-02
  2.60801033E-01  6.16462078E-01  2.21006028E-01  1.14660081E-01  9.19999648E-01
 -3.03068213E-03  1.00000000E+00  1.00000000E+00  1.00000000E+00  1.00000000E+00
  1.96665025E-03  1.52306019E-02  7.61269097E-02  2.60801033E-01  6.16462078E-01
  2.21006028E-01  1.14660081E-01  9.19999648E-01 -3.03068213E-03  1.00000000E+00
  1.00000000E+00  1.00000000E+00  1.00000000E+00  2.54938145E-02  1.90373109E-01
  8.52161486E-01  1.00000000E+00  1.00000000E+00  1.00000000E+00  1.00000000E+00
  2.54938145E-02  1.90373109E-01  8.52161486E-01  1.00000000E+00  1.00000000E+00
  1.00000000E+00  1.00000000E+00  2.54938145E-02  1.90373109E-01  8.52161486E-01
  1.00000000E+00  1.00000000E+00  1.00000000E+00  1.00000000E+00  2.54938145E-02
  1.90373109E-01  8.52161486E-01  1.00000000E+00  1.00000000E+00  1.00000000E+00
  1.00000000E+00  2.54938145E-02  1.90373109E-01  8.52161486E-01  1.00000000E+00
  1.00000000E+00  1.00000000E+00  1.00000000E+00  1.80093016E-03  1.37419012E-02
  6.81334059E-02  2.33325020E-01  5.89086051E-01  2.99505026E-01  1.14536016E-01
  9.20512125E-01 -3.37804046E-03  1.00000000E+00  1.00000000E+00  1.00000000E+00
  1.00000000E+00
P(S=P) Contraction coefficients            R   N=         126
  0.00000000E+00  0.00000000E+00  0.00000000E+00  0.00000000E+00  0.00000000E+00
  0.00000000E+00  4.02486927E-02  2.37593957E-01  8.15853851E-01  1.00000000E+00
  1.00000000E+00  1.00000000E+00  0.00000000E+00  0.00000000E+00  0.00000000E+00
  0.00000000E+00  0.00000000E+00  0.00000000E+00  0.00000000E+00  4.02486927E-02
  2.37593957E-01  8.15853851E-01  1.00000000E+00  1.00000000E+00  1.00000000E+00
  0.00000000E+00  0.00000000E+00  0.00000000E+00  0.00000000E+00  0.00000000E+00
  0.00000000E+00  0.00000000E+00  4.02486927E-02  2.37593957E-01  8.15853851E-01
  1.00000000E+00  1.00000000E+00  1.00000000E+00  0.00000000E+00  0.00000000E+00
  0.00000000E+00  0.00000000E+00  0.00000000E+00  0.00000000E+00  0.00000000E+00
  4.02486927E-02  2.37593957E-01  8.15853851E-01  1.00000000E+00  1.00000000E+00
  1.00000000E+00  0.00000000E+00  0.00000000E+00  0.00000000E+00  0.00000000E+00
  0.00000000E+00  0.00000000E+00  0.00000000E+00  4.02486927E-02  2.37593957E-01
  8.15853851E-01  1.00000000E+00  1.00000000E+00  1.00000000E+00  0.00000000E+00
  0.00000000E+00  0.00000000E+00  0.00000000E+00  0.00000000E+00  0.00000000E+00
  0.00000000E+00  4.02486927E-02  2.37593957E-01  8.15853851E-01  1.00000000E+00
  1.00000000E+00  1.00000000E+00  0.00000000E+00  0.00000000E+00  0.00000000E+00
  0.00000000E+00  0.00000000E+00  0.00000000E+00  0.00000000E+00  0.00000000E+00
  0.00000000E+00  0.00000000E+00  0.00000000E+00  0.00000000E+00  0.00000000E+00
  0.00000000E+00  0.00000000E+00  0.00000000E+00  0.00000000E+00  0.00000000E+00
  0.00000000E+00  0.00000000E+00  0.00000000E+00  0.00000000E+00  0.00000000E+00
  0.00000000E+00  0.00000000E+00  0.00000000E+00  0.00000000E+00  0.00000000E+00
  0.00000000E+00  0.00000000E+00  0.00000000E+00  0.00000000E+00  0.00000000E+00
  0.00000000E+00  0.00000000E+00  0.00000000E+00  0.00000000E+00  0.00000000E+00
  0.00000000E+00  0.00000000E+00  0.00000000E+00  0.00000000E+00  3.54608874E-02
  2.37450915E-01  8.20457708E-01  1.00000000E+00  1.00000000E+00  1.00000000E+00
  0.00000000E+00
Coordinates of each shell                  R   N=         201
  2.27350827E+00  1.30662083E+00 -3.77945225E-09  2.27350827E+00  1.30662083E+00
 -3.77945225E-09  2.27350827E+00  1.30662083E+00 -3.77945225E-09  2.27350827E+00
  1.30662083E+00 -3.77945225E-09  2.27350827E+00  1.30662083E+00 -3.77945225E-09
  2.27350827E+00  1.30662083E+00 -3.77945225E-09  2.29108209E+00 -1.32171956E+00
  0.00000000E+00  2.29108209E+00 -1.32171956E+00  0.00000000E+00  2.29108209E+00
 -1.32171956E+00  0.00000000E+00  2.29108209E+00 -1.32171956E+00  0.00000000E+00
  2.29108209E+00 -1.32171956E+00  0.00000000E+00  2.29108209E+00 -1.32171956E+00
  0.00000000E+00  0.00000000E+00 -2.57859371E+00 -7.55890450E-09  0.00000000E+00
 -2.57859371E+00 -7.55890450E-09  0.00000000E+00 -2.57859371E+00 -7.55890450E-09
  0.00000000E+00 -2.57859371E+00 -7.55890450E-09  0.00000000E+00 -2.57859371E+00
 -7.55890450E-09  0.00000000E+00 -2.57859371E+00 -7.55890450E-09 -2.29108209E+00
 -1.32171956E+00  1.88972612E-09 -2.29108209E+00 -1.32171956E+00  1.88972612E-09
 -2.29108209E+00 -1.32171956E+00  1.88972612E-09 -2.29108209E+00 -1.32171956E+00
  1.88972612E-09 -2.29108209E+00 -1.32171956E+00  1.88972612E-09 -2.29108209E+00
 -1.32171956E+00  1.88972612E-09 -2.27350827E+00  1.30662083E+00 -3.77945225E-09
 -2.27350827E+00  1.30662083E+00 -3.77945225E-09 -2.27350827E+00  1.30662083E+00
 -3.77945225E-09 -2.27350827E+00  1.30662083E+00 -3.77945225E-09 -2.27350827E+00
  1.30662083E+00 -3.77945225E-09 -2.27350827E+00  1.30662083E+00 -3.77945225E-09
  0.00000000E+00  2.62538645E+00  3.77945225E-09  0.00000000E+00  2.62538645E+00
  3.77945225E-09  0.00000000E+00  2.62538645E+00  3.77945225E-09  0.00000000E+00
  2.62538645E+00  3.77945225E-09  0.00000000E+00  2.62538645E+00  3.77945225E-09
  0.00000000E+00  2.62538645E+00  3.77945225E-09  4.05337771E+00  2.32422935E+00
  1.88972612E-09  4.05337771E+00  2.32422935E+00  1.88972612E-09  4.05337771E+00
  2.32422935E+00  1.88972612E-09  4.05337771E+00  2.32422935E+00  1.88972612E-09
  4.05337771E+00  2.32422935E+00  1.88972612E-09  4.03860141E+00 -2.38998141E+00
 -1.88972612E-09  4.03860141E+00 -2.38998141E+00 -1.88972612E-09  4.03860141E+00
 -2.38998141E+00 -1.88972612E-09  4.03860141E+00 -2.38998141E+00 -1.88972612E-09
  4.03860141E+00 -2.38998141E+00 -1.88972612E-09 -4.03860141E+00 -2.38998141E+00
 -1.88972612E-09 -4.03860141E+00 -2.38998141E+00 -1.88972612E-09 -4.03860141E+00
 -2.38998141E+00 -1.88972612E-09 -4.03860141E+00 -2.38998141E+00 -1.88972612E-09
 -4.03860141E+00 -2.38998141E+00 -1.88972612E-09 -4.05337771E+00  2.32422935E+00
  1.88972612E-09 -4.05337771E+00  2.32422935E+00  1.88972612E-09 -4.05337771E+00
  2.32422935E+00  1.88972612E-09 -4.05337771E+00  2.32422935E+00  1.88972612E-09
 -4.05337771E+00  2.32422935E+00  1.88972612E-09  0.00000000E+00  4.67472829E+00
  0.00000000E+00  0.00000000E+00  4.67472829E+00  0.00000000E+00  0.00000000E+00
  4.67472829E+00  0.00000000E+00  0.00000000E+00  4.67472829E+00  0.00000000E+00
  0.00000000E+00  4.67472829E+00  0.00000000E+00  0.00000000E+00 -5.12075374E+00
  5.66917837E-09  0.00000000E+00 -5.12075374E+00  5.66917837E-09  0.00000000E+00
 -5.12075374E+00  5.66917837E-09  0.00000000E+00 -5.12075374E+00  5.66917837E-09
  0.00000000E+00 -5.12075374E+00  5.66917837E-09  0.00000000E+00 -5.12075374E+00
  5.66917837E-09
Num ILSW                                   I              100
ILSW                                       I   N=         100
           0           0           0           0           2           0
           0           0           0           0        1009          -1
           5           0           0           0           0           0
           0           0           0           0           0           0
           1           1           0           0           0           0
           0           0      100000           0          -1           0
           0           0           0           0           0           0
           0           0           0           1           0           0
           0 -2000000000           1           0           0           0
           0           0           4          52           0           0
           0           0          13           0           0           0
           0           0           0          12           0           1
           0           0           0           0           0           0
           0           0           0           0           0           0
           0           0           0           0           0           0
           0           0           0           0           0           0
           0           0           0           0
Num RLSW                                   I               52
RLSW                                       R   N=          52
  7.50000000E-01  7.50000000E-01  1.00000000E+00  1.00000000E+00  2.50000000E-01
  0.00000000E+00  0.00000000E+00  1.00000000E+00  0.00000000E+00  0.00000000E+00
  0.00000000E+00  0.00000000E+00  1.00000000E+00  0.00000000E+00  0.00000000E+00
  0.00000000E+00  0.00000000E+00  1.00000000E+00  0.00000000E+00  0.00000000E+00
  0.00000000E+00  0.00000000E+00  1.00000000E+00  0.00000000E+00  0.00000000E+00
  0.00000000E+00  0.00000000E+00  1.00000000E+00  0.00000000E+00  0.00000000E+00
  0.00000000E+00  0.00000000E+00  1.00000000E+00  0.00000000E+00  0.00000000E+00
  0.00000000E+00  0.00000000E+00  0.00000000E+00  1.00000000E+00  1.00000000E+00
  0.00000000E+00  1.00000000E+00  0.00000000E+00  0.00000000E+00  0.00000000E+00
  0.00000000E+00  0.00000000E+00  0.00000000E+00  0.00000000E+00  0.00000000E+00
  0.00000000E+00  0.00000000E+00
MxBond                                     I                3
NBond                                      I   N=          12
           3           3           3           3           3           3
           1           1           1           1           1           1
IBond                                      I   N=          36
           2           6           7           1           3           8
           2           4          12           3           5           9
           4           6          10           1           5          11
           1           0           0           2           0           0
           4           0           0           5           0           0
           6           0           0           3           0           0
RBond                                      R   N=          36
  1.50000000E+00  1.50000000E+00  1.00000000E+00  1.50000000E+00  1.50000000E+00
  1.00000000E+00  1.50000000E+00  1.50000000E+00  1.00000000E+00  1.50000000E+00
  1.50000000E+00  1.00000000E+00  1.50000000E+00  1.50000000E+00  1.00000000E+00
  1.50000000E+00  1.50000000E+00  1.00000000E+00  1.00000000E+00  0.00000000E+00
  0.00000000E+00  1.00000000E+00  0.00000000E+00  0.00000000E+00  1.00000000E+00
  0.00000000E+00  0.00000000E+00  1.00000000E+00  0.00000000E+00  0.00000000E+00
  1.00000000E+00  0.00000000E+00  0.00000000E+00  1.00000000E+00  0.00000000E+00
  0.00000000E+00
Virial Ratio                               R      2.003579474898939E+00
SCF Energy                                 R     -3.311996507476346E+02
Total Energy                               R     -3.311996507476346E+02
RMS Density                                R      1.058528431944015E-09
Job Status                                 I                1
Nuclear derivative order                   I                0
External E-field                           R   N=          35
  0.00000000E+00  0.00000000E+00  0.00000000E+00  0.00000000E+00  0.00000000E+00
  0.00000000E+00  0.00000000E+00  0.00000000E+00  0.00000000E+00  0.00000000E+00
  0.00000000E+00  0.00000000E+00  0.00000000E+00  0.00000000E+00  0.00000000E+00
  0.00000000E+00  0.00000000E+00  0.00000000E+00  0.00000000E+00  0.00000000E+00
  0.00000000E+00  0.00000000E+00  0.00000000E+00  0.00000000E+00  0.00000000E+00
  0.00000000E+00  0.00000000E+00  0.00000000E+00  0.00000000E+00  0.00000000E+00
  0.00000000E+00  0.00000000E+00  0.00000000E+00  0.00000000E+00  0.00000000E+00
IOpCl                                      I                0
IROHF                                      I                0
Alpha Orbital Energies                     R   N=         189
 -2.47821088E+01 -1.03160077E+01 -1.02425699E+01 -1.02425541E+01 -1.02390768E+01
 -1.02390697E+01 -1.02354327E+01 -1.26555229E+00 -9.00305264E-01 -7.90665423E-01
 -7.81508998E-01 -6.52195176E-01 -6.40961006E-01 -5.72466479E-01 -5.20093368E-01
 -5.13656640E-01 -4.91193753E-01 -4.68140258E-01 -4.53665049E-01 -4.22279153E-01
 -3.91696371E-01 -3.87073167E-01 -3.66466752E-01 -2.82234778E-01 -2.67645800E-01
 -2.22656532E-02 -9.78289132E-03  1.03956901E-03  1.62824631E-02  2.20599671E-02
  4.10861949E-02  4.18312332E-02  6.68624301E-02  6.73081828E-02  8.87031363E-02
  9.47056624E-02  9.77632120E-02  1.07031269E-01  1.17360584E-01  1.26353858E-01
  1.29343544E-01  1.35376563E-01  1.37636453E-01  1.37738330E-01  1.44652754E-01
  1.45677862E-01  1.47175907E-01  1.50153954E-01  1.61872202E-01  1.63523382E-01
  1.81831518E-01  2.03357151E-01  2.07574623E-01  2.08320630E-01  2.23561297E-01
  2.26594683E-01  2.55502292E-01  2.70235581E-01  2.78614894E-01  2.82472807E-01
  2.87627821E-01  3.11242079E-01  3.13733788E-01  3.26686280E-01  3.46977734E-01
  3.57168535E-01  3.57630118E-01  3.80072773E-01  4.06183359E-01  4.07209675E-01
  4.49484208E-01  4.89632827E-01  5.06612950E-01  5.31420903E-01  5.42829853E-01
  5.52216552E-01  5.64704194E-01  5.79564165E-01  5.80585844E-01  5.83014948E-01
  6.05975855E-01  6.08783485E-01  6.25686522E-01  6.29207340E-01  6.87625836E-01
  6.89462425E-01  7.35950722E-01  7.51146970E-01  7.78916427E-01  7.95748156E-01
  8.05027527E-01  8.54177955E-01  8.60131257E-01  8.67042136E-01  8.84534918E-01
  8.90354363E-01  9.01295534E-01  9.29910560E-01  9.47710384E-01  9.69794230E-01
  9.97250495E-01  1.02830150E+00  1.02916987E+00  1.07032621E+00  1.09922493E+00
  1.12956287E+00  1.18891883E+00  1.29558332E+00  1.34930720E+00  1.44203156E+00
  1.45277285E+00  1.45626720E+00  1.51211009E+00  1.52754705E+00  1.55055619E+00
  1.56746503E+00  1.56933856E+00  1.57256260E+00  1.61504598E+00  1.64658351E+00
  1.65283026E+00  1.67196611E+00  1.73787915E+00  1.74751202E+00  1.77124588E+00
  1.83194810E+00  1.87845026E+00  1.92137569E+00  1.92363108E+00  1.94188399E+00
  1.96176131E+00  1.96363702E+00  1.99211484E+00  2.02328217E+00  2.04363906E+00
  2.06825364E+00  2.08198514E+00  2.09514732E+00  2.28543777E+00  2.30662228E+00
  2.33980705E+00  2.42559090E+00  2.44556240E+00  2.46327783E+00  2.51492735E+00
  2.62784279E+00  2.66153115E+00  2.66492459E+00  2.71210507E+00  2.72514151E+00
  2.74356068E+00  2.75912600E+00  2.78243501E+00  2.78799998E+00  2.81479219E+00
  2.85251917E+00  2.86545512E+00  2.89985432E+00  2.91145789E+00  2.96716624E+00
  3.10044453E+00  3.15890855E+00  3.20455773E+00  3.37191154E+00  3.38541983E+00
  3.51110814E+00  3.52457982E+00  3.65125644E+00  3.75013778E+00  3.80422222E+00
  3.87302126E+00  4.00882365E+00  4.01438808E+00  4.07142949E+00  4.14385609E+00
  4.17752653E+00  4.17752743E+00  4.86532154E+00  4.90099397E+00  6.36600856E+00
  6.49653061E+00  6.80146133E+00  2.36615655E+01  2.40262055E+01  2.40788467E+01
  2.41887130E+01  2.42023972E+01  2.43045907E+01  6.69592134E+01
Alpha MO coefficients                      R   N=       35721
 -1.38364646E-06  6.09153699E-06 -1.65335741E-05 -4.14833430E-05 -9.19725739E-13
  5.79389458E-05  9.41405495E-05  2.29871010E-04  3.41493890E-12 -6.06757402E-03
  1.96649806E-03  2.13634180E-03 -1.37154224E-11 -5.78854986E-02  1.30451869E-02
  5.75535672E-03 -8.38008052E-11  1.28671574E-05  2.16348938E-12  1.39678995E-12
  5.61347033E-05 -1.40761832E-05 -6.73377829E-06  2.97036449E-05  1.56717761E-05
 -3.59974637E-05 -1.06881383E-12 -2.87901382E-04 -4.73921083E-05  1.55306885E-04
  4.10127564E-12  6.51380005E-03 -3.99409148E-03  3.92582910E-03 -1.92462446E-11
  6.56855051E-02 -1.56919683E-02  5.48774545E-03  6.38939945E-11 -4.20084051E-05
  2.65019616E-12 -1.84920691E-12  2.81770244E-05 -1.02075855E-04  2.45012648E-05
 -1.03664483E-04 -9.05386382E-15 -1.19828447E-04 -2.40381827E-12  6.69481824E-04
  4.13236178E-14 -2.09863724E-04  1.27664637E-11 -4.51369970E-03 -1.35884163E-13
 -8.00760974E-03 -2.46049312E-11 -8.19257500E-02 -6.79149099E-12 -1.26925779E-02
 -2.50675134E-10 -1.52993576E-04 -1.18159722E-13 -8.63420998E-12 -1.99171340E-05
 -5.96695599E-15 -6.73377829E-06  2.97036449E-05 -1.56717761E-05 -3.59974638E-05
 -1.03009833E-12 -2.87901382E-04  4.73921083E-05  1.55306885E-04  4.00657549E-12
  6.51380005E-03  3.99409148E-03  3.92582910E-03 -2.26660079E-11  6.56855051E-02
  1.56919682E-02  5.48774546E-03  5.50630662E-11 -4.20084051E-05 -3.16173524E-12
 -2.33059897E-12  2.81770244E-05  1.02075855E-04 -1.38364646E-06  6.09153699E-06
  1.65335741E-05 -4.14833430E-05 -9.48400925E-13  5.79389459E-05 -9.41405495E-05
  2.29871010E-04  3.52498410E-12 -6.06757402E-03 -1.96649806E-03  2.13634180E-03
 -1.69868613E-11 -5.78854986E-02 -1.30451869E-02  5.75535673E-03 -8.83194951E-11
  1.28671574E-05 -2.44785001E-12  1.60313743E-12  5.61347033E-05  1.40761832E-05
 -5.06056398E-06  2.09548070E-05  1.03222867E-15 -6.84873261E-07 -1.20972637E-12
 -2.17007044E-04 -5.96807870E-15  2.17941203E-05  4.62038987E-12  3.58799794E-03
 -2.17161361E-13 -2.71927811E-03 -1.59912686E-11  6.01367469E-02  6.01970710E-12
 -1.27269767E-02 -1.02593274E-11 -2.95455343E-05 -1.57176857E-13  2.81883065E-12
 -1.40232319E-05  1.84694410E-15 -1.65510650E-07 -1.86307329E-04 -6.49530658E-04
 -2.79874842E-03  3.17607959E-05 -9.97542691E-06  2.57436393E-12 -8.79839484E-05
  8.71653692E-04  1.79539729E-03  3.53034875E-03 -2.49918840E-05  1.12857985E-05
  1.91213375E-12 -8.79839484E-05  8.71653692E-04  1.79539729E-03  3.53034875E-03
  2.49918840E-05  1.12857985E-05  2.65024214E-12 -1.65510660E-07 -1.86307329E-04
 -6.49530657E-04 -2.79874842E-03 -3.17607959E-05 -9.97542692E-06  2.84401861E-12
 -4.95797140E-05  3.76299987E-04  7.41917216E-04  2.23674887E-03  5.76660089E-15
 -2.72075251E-06  2.19840178E-12  5.48018091E-01  4.71746208E-01 -7.45855914E-15
  9.52345165E-04 -6.99658067E-12  1.17941992E-02  1.35850677E-14 -6.81069295E-05
  5.55987340E-12 -8.71315178E-03 -4.31091451E-14 -1.37113758E-03 -9.12796376E-12
  2.83217517E-03  2.02338489E-13  1.80705124E-04  6.68074605E-11  1.04979438E-05
 -8.45370384E-15  4.52866892E-13  4.30509755E-05  8.34980265E-16 -2.26978279E-05