 Entering Gaussian System, Link 0=g16
 Initial command:
 /sw/cluster/pub/apps//g16/l1.exe "/data/natrosa/27907/Gau-762943.inp" -scrdir="/data/natrosa/27907/"
 Entering Link 1 = /sw/cluster/pub/apps//g16/l1.exe PID=    762944.
  
 Copyright (c) 1988,1990,1992,1993,1995,1998,2003,2009,2016,
            Gaussian, Inc.  All Rights Reserved.
  
 This is part of the Gaussian(R) 16 program.  It is based on
 the Gaussian(R) 09 system (copyright 2009, Gaussian, Inc.),
 the Gaussian(R) 03 system (copyright 2003, Gaussian, Inc.),
 the Gaussian(R) 98 system (copyright 1998, Gaussian, Inc.),
 the Gaussian(R) 94 system (copyright 1995, Gaussian, Inc.),
 the Gaussian 92(TM) system (copyright 1992, Gaussian, Inc.),
 the Gaussian 90(TM) system (copyright 1990, Gaussian, Inc.),
 the Gaussian 88(TM) system (copyright 1988, Gaussian, Inc.),
 the Gaussian 86(TM) system (copyright 1986, Carnegie Mellon
 University), and the Gaussian 82(TM) system (copyright 1983,
 Carnegie Mellon University). Gaussian is a federally registered
 trademark of Gaussian, Inc.
  
 This software contains proprietary and confidential information,
 including trade secrets, belonging to Gaussian, Inc.
  
 This software is provided under written license and may be
 used, copied, transmitted, or stored only in accord with that
 written license.
  
 The following legend is applicable only to US Government
 contracts under FAR:
  
                    RESTRICTED RIGHTS LEGEND
  
 Use, reproduction and disclosure by the US Government is
 subject to restrictions as set forth in subparagraphs (a)
 and (c) of the Commercial Computer Software - Restricted
 Rights clause in FAR 52.227-19.
  
 Gaussian, Inc.
 340 Quinnipiac St., Bldg. 40, Wallingford CT 06492
  
  
 ---------------------------------------------------------------
 Warning -- This program may not be used in any manner that
 competes with the business of Gaussian, Inc. or will provide
 assistance to any competitor of Gaussian, Inc.  The licensee
 of this program is prohibited from giving any competitor of
 Gaussian, Inc. access to this program.  By using this program,
 the user acknowledges that Gaussian, Inc. is engaged in the
 business of creating and licensing software in the field of
 computational chemistry and represents and warrants to the
 licensee that it is not a competitor of Gaussian, Inc. and that
 it will not use this program in any manner prohibited above.
 ---------------------------------------------------------------
  

 Cite this work as:
 Gaussian 16, Revision A.03,
 M. J. Frisch, G. W. Trucks, H. B. Schlegel, G. E. Scuseria, 
 M. A. Robb, J. R. Cheeseman, G. Scalmani, V. Barone, 
 G. A. Petersson, H. Nakatsuji, X. Li, M. Caricato, A. V. Marenich, 
 J. Bloino, B. G. Janesko, R. Gomperts, B. Mennucci, H. P. Hratchian, 
 J. V. Ortiz, A. F. Izmaylov, J. L. Sonnenberg, D. Williams-Young, 
 F. Ding, F. Lipparini, F. Egidi, J. Goings, B. Peng, A. Petrone, 
 T. Henderson, D. Ranasinghe, V. G. Zakrzewski, J. Gao, N. Rega, 
 G. Zheng, W. Liang, M. Hada, M. Ehara, K. Toyota, R. Fukuda, 
 J. Hasegawa, M. Ishida, T. Nakajima, Y. Honda, O. Kitao, H. Nakai, 
 T. Vreven, K. Throssell, J. A. Montgomery, Jr., J. E. Peralta, 
 F. Ogliaro, M. J. Bearpark, J. J. Heyd, E. N. Brothers, K. N. Kudin, 
 V. N. Staroverov, T. A. Keith, R. Kobayashi, J. Normand, 
 K. Raghavachari, A. P. Rendell, J. C. Burant, S. S. Iyengar, 
 J. Tomasi, M. Cossi, J. M. Millam, M. Klene, C. Adamo, R. Cammi, 
 J. W. Ochterski, R. L. Martin, K. Morokuma, O. Farkas, 
 J. B. Foresman, and D. J. Fox, Gaussian, Inc., Wallingford CT, 2016.
 
 ******************************************
 Gaussian 16:  ES64L-G16RevA.03 25-Dec-2016
                17-Jan-2025 
 ******************************************
 %chk=MFB.chk
 -----------------------------------------------
 #p PBE1PBE/6-311++G(d,p) density=current nosymm
 -----------------------------------------------
 1/30=1,38=1,172=1/1;
 2/12=2,15=1,17=6,18=5,40=1/2;
 3/5=4,6=6,7=1111,11=2,25=1,30=1,74=-13/1,2,3;
 4//1;
 5/5=2,38=5/2;
 6/7=2,8=2,9=2,10=2,22=-1,28=1/1;
 99/5=1,9=1/99;
 Leave Link    1 at Fri Jan 17 11:23:32 2025, MaxMem=           0 cpu:               0.0 elap:               0.0
 (Enter /sw/cluster/pub/apps//g16/l101.exe)
 ------
 MFB SP
 ------
 Symbolic Z-matrix:
 Charge =  0 Multiplicity = 1
 C                     1.20309   0.69143  0. 
 C                     1.21239  -0.69942   0. 
 C                     0.       -1.36453  0. 
 C                    -1.21239  -0.69942   0. 
 C                    -1.20309   0.69143  0. 
 C                     0.        1.38929   0. 
 H                     2.14496   1.22993   0. 
 H                     2.13714  -1.26472  0. 
 H                    -2.13714  -1.26472  0. 
 H                    -2.14496   1.22993   0. 
 H                     0.        2.47376   0. 
 F                     0.       -2.70979   0. 
 
 ITRead=  0  0  0  0  0  0  0  0  0  0  0  0
 MicOpt= -1 -1 -1 -1 -1 -1 -1 -1 -1 -1 -1 -1
 NAtoms=     12 NQM=       12 NQMF=       0 NMMI=      0 NMMIF=      0
                NMic=       0 NMicF=      0.
                    Isotopes and Nuclear Properties:
 (Nuclear quadrupole moments (NQMom) in fm**2, nuclear magnetic moments (NMagM)
  in nuclear magnetons)

  Atom         1           2           3           4           5           6           7           8           9          10
 IAtWgt=          12          12          12          12          12          12           1           1           1           1
 AtmWgt=  12.0000000  12.0000000  12.0000000  12.0000000  12.0000000  12.0000000   1.0078250   1.0078250   1.0078250   1.0078250
 NucSpn=           0           0           0           0           0           0           1           1           1           1
 AtZEff=  -0.0000000  -0.0000000  -0.0000000  -0.0000000  -0.0000000  -0.0000000  -0.0000000  -0.0000000  -0.0000000  -0.0000000
 NQMom=    0.0000000   0.0000000   0.0000000   0.0000000   0.0000000   0.0000000   0.0000000   0.0000000   0.0000000   0.0000000
 NMagM=    0.0000000   0.0000000   0.0000000   0.0000000   0.0000000   0.0000000   2.7928460   2.7928460   2.7928460   2.7928460
 AtZNuc=   6.0000000   6.0000000   6.0000000   6.0000000   6.0000000   6.0000000   1.0000000   1.0000000   1.0000000   1.0000000

  Atom        11          12
 IAtWgt=           1          19
 AtmWgt=   1.0078250  18.9984032
 NucSpn=           1           1
 AtZEff=  -0.0000000  -0.0000000
 NQMom=    0.0000000   0.0000000
 NMagM=    2.7928460   2.6288670
 AtZNuc=   1.0000000   9.0000000
 Leave Link  101 at Fri Jan 17 11:23:32 2025, MaxMem=   104857600 cpu:               0.0 elap:               0.1
 (Enter /sw/cluster/pub/apps//g16/l202.exe)
                          Input orientation:                          
 ---------------------------------------------------------------------
 Center     Atomic      Atomic             Coordinates (Angstroms)
 Number     Number       Type             X           Y           Z
 ---------------------------------------------------------------------
      1          6           0        1.203089    0.691434   -0.000000
      2          6           0        1.212388   -0.699424    0.000000
      3          6           0        0.000000   -1.364533   -0.000000
      4          6           0       -1.212388   -0.699424    0.000000
      5          6           0       -1.203089    0.691434   -0.000000
      6          6           0        0.000000    1.389295    0.000000
      7          1           0        2.144955    1.229929    0.000000
      8          1           0        2.137136   -1.264724   -0.000000
      9          1           0       -2.137136   -1.264724   -0.000000
     10          1           0       -2.144955    1.229929    0.000000
     11          1           0        0.000000    2.473760    0.000000
     12          9           0        0.000000   -2.709786    0.000000
 ---------------------------------------------------------------------
                    Distance matrix (angstroms):
                    1          2          3          4          5
     1  C    0.000000
     2  C    1.390889   0.000000
     3  C    2.382105   1.382843   0.000000
     4  C    2.787295   2.424777   1.382843   0.000000
     5  C    2.406178   2.787295   2.382105   1.390889   0.000000
     6  C    1.390839   2.415084   2.753828   2.415084   1.390839
     7  H    1.084937   2.142915   3.366314   3.872229   3.391073
     8  H    2.167717   1.083846   2.139465   3.396892   3.870872
     9  H    3.870872   3.396892   2.139465   1.083846   2.167717
    10  H    3.391073   3.872229   3.366314   2.142915   1.084937
    11  H    2.150374   3.396907   3.838293   3.396907   2.150374
    12  F    3.607731   2.347646   1.345253   2.347646   3.607731
                    6          7          8          9         10
     6  C    0.000000
     7  H    2.150867   0.000000
     8  H    3.407516   2.494665   0.000000
     9  H    3.407516   4.955764   4.274272   0.000000
    10  H    2.150867   4.289910   4.955764   2.494665   0.000000
    11  H    1.084465   2.479505   4.306229   4.306229   2.479505
    12  F    4.099081   4.485776   2.579836   2.579836   4.485776
                   11         12
    11  H    0.000000
    12  F    5.183546   0.000000
 Symmetry turned off by external request.
 Stoichiometry    C6H5F
 Framework group  C2V[C2(HCCF),SGV(C4H4)]
 Deg. of freedom    11
 Full point group                 C2V     NOp   4
 Rotational constants (GHZ):           5.7108041           2.5822658           1.7782093
 Leave Link  202 at Fri Jan 17 11:23:33 2025, MaxMem=   104857600 cpu:               0.0 elap:               0.0
 (Enter /sw/cluster/pub/apps//g16/l301.exe)
 Standard basis: 6-311++G(d,p) (5D, 7F)
 Ernie: Thresh=  0.10000D-02 Tol=  0.10000D-05 Strict=F.
   189 basis functions,   297 primitive gaussians,   196 cartesian basis functions
    25 alpha electrons       25 beta electrons
       nuclear repulsion energy       270.0364945340 Hartrees.
 IExCor= 1009 DFT=T Ex+Corr=PBE1PBE ExCW=0 ScaHFX=  0.250000
 ScaDFX=  0.750000  0.750000  1.000000  1.000000 ScalE2=  1.000000  1.000000
 IRadAn=      5 IRanWt=     -1 IRanGd=            0 ICorTp=0 IEmpDi=  4
 NAtoms=   12 NActive=   12 NUniq=   12 SFac= 1.00D+00 NAtFMM=   60 NAOKFM=F Big=F
 Integral buffers will be    131072 words long.
 Raffenetti 2 integral format.
 Two-electron integral symmetry is turned off.
 Leave Link  301 at Fri Jan 17 11:23:33 2025, MaxMem=   104857600 cpu:               0.0 elap:               0.2
 (Enter /sw/cluster/pub/apps//g16/l302.exe)
 NPDir=0 NMtPBC=     1 NCelOv=     1 NCel=       1 NClECP=     1 NCelD=      1
         NCelK=      1 NCelE2=     1 NClLst=     1 CellRange=     0.0.
 One-electron integrals computed using PRISM.
 NBasis=   189 RedAO= T EigKep=  1.59D-06  NBF=   189
 NBsUse=   189 1.00D-06 EigRej= -1.00D+00 NBFU=   189
 Precomputing XC quadrature grid using
 IXCGrd= 4 IRadAn=           5 IRanWt=          -1 IRanGd=           0 AccXCQ= 0.00D+00.
 Generated NRdTot=       0 NPtTot=           0 NUsed=           0 NTot=          32
 NSgBfM=   196   196   196   196   196 MxSgAt=    12 MxSgA2=    12.
 Leave Link  302 at Fri Jan 17 11:23:33 2025, MaxMem=   104857600 cpu:               0.1 elap:               0.2
 (Enter /sw/cluster/pub/apps//g16/l303.exe)
 DipDrv:  MaxL=1.
 Leave Link  303 at Fri Jan 17 11:23:34 2025, MaxMem=   104857600 cpu:               0.0 elap:               0.0
 (Enter /sw/cluster/pub/apps//g16/l401.exe)
 ExpMin= 3.60D-02 ExpMax= 1.14D+04 ExpMxC= 1.72D+03 IAcc=3 IRadAn=         5 AccDes= 0.00D+00
 Harris functional with IExCor= 1009 and IRadAn=       5 diagonalized for initial guess.
 HarFok:  IExCor= 1009 AccDes= 0.00D+00 IRadAn=         5 IDoV= 1 UseB2=F ITyADJ=14
 ICtDFT=  3500011 ScaDFX=  1.000000  1.000000  1.000000  1.000000
 FoFCou: FMM=F IPFlag=           0 FMFlag=      100000 FMFlg1=           0
         NFxFlg=           0 DoJE=T BraDBF=F KetDBF=T FulRan=T
         wScrn=  0.000000 ICntrl=       500 IOpCl=  0 I1Cent=   200000004 NGrid=           0
         NMat0=    1 NMatS0=      1 NMatT0=    0 NMatD0=    1 NMtDS0=    0 NMtDT0=    0
 Symmetry not used in FoFCou.
 Harris En= -331.286032529330    
 JPrj=0 DoOrth=F DoCkMO=F.
 Leave Link  401 at Fri Jan 17 11:23:35 2025, MaxMem=   104857600 cpu:               1.1 elap:               1.2
 (Enter /sw/cluster/pub/apps//g16/l502.exe)
 Two-electron integral symmetry not used.
 Closed shell SCF:
 Using DIIS extrapolation, IDIIS=  1040.
 NGot=   104857600 LenX=   104778092 LenY=   104739235
 Requested convergence on RMS density matrix=1.00D-08 within 128 cycles.
 Requested convergence on MAX density matrix=1.00D-06.
 Requested convergence on             energy=1.00D-06.
 No special actions if energy rises.
 Fock matrices will be formed incrementally for  20 cycles.

 Cycle   1  Pass 1  IDiag  1:
 FoFJK:  IHMeth= 1 ICntrl=       0 DoSepK=F KAlg= 0 I1Cent=           0 FoldK=F
 IRaf= 980000000 NMat=       1 IRICut=       1 DoRegI=T DoRafI=F ISym2E= 0 IDoP0=0 IntGTp=1.
 FoFCou: FMM=F IPFlag=           0 FMFlag=      100000 FMFlg1=           0
         NFxFlg=           0 DoJE=F BraDBF=F KetDBF=F FulRan=T
         wScrn=  0.000000 ICntrl=         0 IOpCl=  0 I1Cent=           0 NGrid=           0
         NMat0=    1 NMatS0=      1 NMatT0=    0 NMatD0=    1 NMtDS0=    0 NMtDT0=    0
 Symmetry not used in FoFCou.
 E= -331.048207901814    
 DIIS: error= 4.28D-02 at cycle   1 NSaved=   1.
 NSaved= 1 IEnMin= 1 EnMin= -331.048207901814     IErMin= 1 ErrMin= 4.28D-02
 ErrMax= 4.28D-02  0.00D+00 EMaxC= 1.00D-01 BMatC= 1.63D-01 BMatP= 1.63D-01
 IDIUse=3 WtCom= 5.72D-01 WtEn= 4.28D-01
 Coeff-Com:  0.100D+01
 Coeff-En:   0.100D+01
 Coeff:      0.100D+01
 Gap=     0.277 Goal=   None    Shift=    0.000
 GapD=    0.277 DampG=1.000 DampE=0.500 DampFc=0.5000 IDamp=-1.
 Damping current iteration by 5.00D-01
 RMSDP=9.90D-03 MaxDP=4.03D-01              OVMax= 2.18D-01

 Cycle   2  Pass 1  IDiag  1:
 RMSU=  3.32D-03    CP:  9.19D-01
 E= -331.114234546370     Delta-E=       -0.066026644556 Rises=F Damp=T
 DIIS: error= 6.53D-03 at cycle   2 NSaved=   2.
 NSaved= 2 IEnMin= 2 EnMin= -331.114234546370     IErMin= 2 ErrMin= 6.53D-03
 ErrMax= 6.53D-03  0.00D+00 EMaxC= 1.00D-01 BMatC= 1.25D-02 BMatP= 1.63D-01
 IDIUse=3 WtCom= 9.35D-01 WtEn= 6.53D-02
 Coeff-Com:  0.189D-01 0.981D+00
 Coeff-En:   0.108D+00 0.892D+00
 Coeff:      0.246D-01 0.975D+00
 Gap=     0.286 Goal=   None    Shift=    0.000
 RMSDP=4.37D-03 MaxDP=1.33D-01 DE=-6.60D-02 OVMax= 1.71D-01

 Cycle   3  Pass 1  IDiag  1:
 RMSU=  3.17D-03    CP:  8.53D-01  9.61D-01
 E= -331.190416377664     Delta-E=       -0.076181831294 Rises=F Damp=F
 DIIS: error= 1.18D-02 at cycle   3 NSaved=   3.
 NSaved= 3 IEnMin= 3 EnMin= -331.190416377664     IErMin= 2 ErrMin= 6.53D-03
 ErrMax= 1.18D-02  0.00D+00 EMaxC= 1.00D-01 BMatC= 9.20D-03 BMatP= 1.25D-02
 IDIUse=3 WtCom= 8.82D-01 WtEn= 1.18D-01
 Coeff-Com: -0.593D-01 0.475D+00 0.584D+00
 Coeff-En:   0.000D+00 0.000D+00 0.100D+01
 Coeff:     -0.523D-01 0.419D+00 0.633D+00
 Gap=     0.249 Goal=   None    Shift=    0.000
 RMSDP=1.56D-03 MaxDP=6.84D-02 DE=-7.62D-02 OVMax= 6.36D-02

 Cycle   4  Pass 1  IDiag  1:
 RMSU=  9.39D-04    CP:  8.32D-01  1.11D+00  8.07D-01
 E= -331.196833531886     Delta-E=       -0.006417154223 Rises=F Damp=F
 DIIS: error= 7.84D-03 at cycle   4 NSaved=   4.
 NSaved= 4 IEnMin= 4 EnMin= -331.196833531886     IErMin= 2 ErrMin= 6.53D-03
 ErrMax= 7.84D-03  0.00D+00 EMaxC= 1.00D-01 BMatC= 2.74D-03 BMatP= 9.20D-03
 IDIUse=3 WtCom= 9.22D-01 WtEn= 7.84D-02
 Coeff-Com: -0.331D-01 0.126D+00 0.385D+00 0.523D+00
 Coeff-En:   0.000D+00 0.000D+00 0.258D+00 0.742D+00
 Coeff:     -0.305D-01 0.116D+00 0.375D+00 0.540D+00
 Gap=     0.246 Goal=   None    Shift=    0.000
 RMSDP=5.04D-04 MaxDP=1.04D-02 DE=-6.42D-03 OVMax= 2.52D-02

 Cycle   5  Pass 1  IDiag  1:
 RMSU=  3.46D-04    CP:  8.31D-01  1.14D+00  8.33D-01  6.40D-01
 E= -331.199571539252     Delta-E=       -0.002738007366 Rises=F Damp=F
 DIIS: error= 1.33D-03 at cycle   5 NSaved=   5.
 NSaved= 5 IEnMin= 5 EnMin= -331.199571539252     IErMin= 5 ErrMin= 1.33D-03
 ErrMax= 1.33D-03  0.00D+00 EMaxC= 1.00D-01 BMatC= 7.69D-05 BMatP= 2.74D-03
 IDIUse=3 WtCom= 9.87D-01 WtEn= 1.33D-02
 Coeff-Com: -0.113D-01 0.288D-01 0.135D+00 0.248D+00 0.599D+00
 Coeff-En:   0.000D+00 0.000D+00 0.000D+00 0.000D+00 0.100D+01
 Coeff:     -0.112D-01 0.285D-01 0.133D+00 0.245D+00 0.604D+00
 Gap=     0.245 Goal=   None    Shift=    0.000
 RMSDP=1.08D-04 MaxDP=3.06D-03 DE=-2.74D-03 OVMax= 4.73D-03

 Cycle   6  Pass 1  IDiag  1:
 RMSU=  6.64D-05    CP:  8.31D-01  1.13D+00  8.40D-01  6.58D-01  7.72D-01
 E= -331.199640429964     Delta-E=       -0.000068890712 Rises=F Damp=F
 DIIS: error= 4.15D-04 at cycle   6 NSaved=   6.
 NSaved= 6 IEnMin= 6 EnMin= -331.199640429964     IErMin= 6 ErrMin= 4.15D-04
 ErrMax= 4.15D-04  0.00D+00 EMaxC= 1.00D-01 BMatC= 1.34D-05 BMatP= 7.69D-05
 IDIUse=3 WtCom= 9.96D-01 WtEn= 4.15D-03
 Coeff-Com: -0.323D-02 0.521D-02 0.429D-01 0.949D-01 0.356D+00 0.504D+00
 Coeff-En:   0.000D+00 0.000D+00 0.000D+00 0.000D+00 0.754D-01 0.925D+00
 Coeff:     -0.322D-02 0.519D-02 0.427D-01 0.945D-01 0.355D+00 0.506D+00
 Gap=     0.245 Goal=   None    Shift=    0.000
 RMSDP=4.11D-05 MaxDP=2.08D-03 DE=-6.89D-05 OVMax= 1.05D-03

 Cycle   7  Pass 1  IDiag  1:
 RMSU=  2.30D-05    CP:  8.30D-01  1.13D+00  8.39D-01  6.69D-01  7.99D-01
                    CP:  6.93D-01
 E= -331.199650646758     Delta-E=       -0.000010216794 Rises=F Damp=F
 DIIS: error= 5.93D-05 at cycle   7 NSaved=   7.
 NSaved= 7 IEnMin= 7 EnMin= -331.199650646758     IErMin= 7 ErrMin= 5.93D-05
 ErrMax= 5.93D-05  0.00D+00 EMaxC= 1.00D-01 BMatC= 1.36D-07 BMatP= 1.34D-05
 IDIUse=1 WtCom= 1.00D+00 WtEn= 0.00D+00
 Coeff-Com: -0.267D-03-0.818D-04 0.533D-02 0.128D-01 0.620D-01 0.141D+00
 Coeff-Com:  0.780D+00
 Coeff:     -0.267D-03-0.818D-04 0.533D-02 0.128D-01 0.620D-01 0.141D+00
 Coeff:      0.780D+00
 Gap=     0.245 Goal=   None    Shift=    0.000
 RMSDP=9.47D-06 MaxDP=3.32D-04 DE=-1.02D-05 OVMax= 1.04D-04

 Cycle   8  Pass 1  IDiag  1:
 RMSU=  3.83D-06    CP:  8.30D-01  1.13D+00  8.41D-01  6.67D-01  7.92D-01
                    CP:  7.44D-01  8.41D-01
 E= -331.199650714940     Delta-E=       -0.000000068182 Rises=F Damp=F
 DIIS: error= 1.67D-05 at cycle   8 NSaved=   8.
 NSaved= 8 IEnMin= 8 EnMin= -331.199650714940     IErMin= 8 ErrMin= 1.67D-05
 ErrMax= 1.67D-05  0.00D+00 EMaxC= 1.00D-01 BMatC= 3.81D-08 BMatP= 1.36D-07
 IDIUse=1 WtCom= 1.00D+00 WtEn= 0.00D+00
 Coeff-Com:  0.181D-03-0.618D-03-0.102D-02-0.153D-02 0.210D-02 0.339D-01
 Coeff-Com:  0.415D+00 0.552D+00
 Coeff:      0.181D-03-0.618D-03-0.102D-02-0.153D-02 0.210D-02 0.339D-01
 Coeff:      0.415D+00 0.552D+00
 Gap=     0.245 Goal=   None    Shift=    0.000
 RMSDP=3.73D-06 MaxDP=2.05D-04 DE=-6.82D-08 OVMax= 5.61D-05

 Cycle   9  Pass 1  IDiag  1:
 RMSU=  8.90D-07    CP:  8.30D-01  1.13D+00  8.41D-01  6.67D-01  7.97D-01
                    CP:  7.54D-01  8.68D-01  8.31D-01
 E= -331.199650746919     Delta-E=       -0.000000031979 Rises=F Damp=F
 DIIS: error= 2.42D-06 at cycle   9 NSaved=   9.
 NSaved= 9 IEnMin= 9 EnMin= -331.199650746919     IErMin= 9 ErrMin= 2.42D-06
 ErrMax= 2.42D-06  0.00D+00 EMaxC= 1.00D-01 BMatC= 7.29D-10 BMatP= 3.81D-08
 IDIUse=1 WtCom= 1.00D+00 WtEn= 0.00D+00
 Coeff-Com:  0.657D-04-0.145D-03-0.584D-03-0.123D-02-0.386D-02 0.279D-04
 Coeff-Com:  0.550D-01 0.155D+00 0.796D+00
 Coeff:      0.657D-04-0.145D-03-0.584D-03-0.123D-02-0.386D-02 0.279D-04
 Coeff:      0.550D-01 0.155D+00 0.796D+00
 Gap=     0.245 Goal=   None    Shift=    0.000
 RMSDP=4.13D-07 MaxDP=2.24D-05 DE=-3.20D-08 OVMax= 1.24D-05

 Cycle  10  Pass 1  IDiag  1:
 RMSU=  1.65D-07    CP:  8.30D-01  1.13D+00  8.40D-01  6.67D-01  7.97D-01
                    CP:  7.55D-01  8.78D-01  8.48D-01  8.92D-01
 E= -331.199650747602     Delta-E=       -0.000000000683 Rises=F Damp=F
 DIIS: error= 6.23D-07 at cycle  10 NSaved=  10.
 NSaved=10 IEnMin=10 EnMin= -331.199650747602     IErMin=10 ErrMin= 6.23D-07
 ErrMax= 6.23D-07  0.00D+00 EMaxC= 1.00D-01 BMatC= 2.80D-11 BMatP= 7.29D-10
 IDIUse=1 WtCom= 1.00D+00 WtEn= 0.00D+00
 Coeff-Com:  0.907D-05-0.161D-04-0.669D-04-0.182D-03-0.703D-03-0.575D-03
 Coeff-Com:  0.177D-02 0.830D-02 0.161D+00 0.830D+00
 Coeff:      0.907D-05-0.161D-04-0.669D-04-0.182D-03-0.703D-03-0.575D-03
 Coeff:      0.177D-02 0.830D-02 0.161D+00 0.830D+00
 Gap=     0.245 Goal=   None    Shift=    0.000
 RMSDP=1.02D-07 MaxDP=3.56D-06 DE=-6.83D-10 OVMax= 3.39D-06

 Cycle  11  Pass 1  IDiag  1:
 RMSU=  4.20D-08    CP:  8.30D-01  1.13D+00  8.41D-01  6.67D-01  7.97D-01
                    CP:  7.55D-01  8.77D-01  8.53D-01  9.16D-01  9.99D-01
 E= -331.199650747625     Delta-E=       -0.000000000022 Rises=F Damp=F
 DIIS: error= 3.70D-07 at cycle  11 NSaved=  11.
 NSaved=11 IEnMin=11 EnMin= -331.199650747625     IErMin=11 ErrMin= 3.70D-07
 ErrMax= 3.70D-07  0.00D+00 EMaxC= 1.00D-01 BMatC= 1.22D-11 BMatP= 2.80D-11
 IDIUse=1 WtCom= 1.00D+00 WtEn= 0.00D+00
 Coeff-Com: -0.656D-06 0.398D-05 0.150D-04 0.330D-05-0.895D-04-0.491D-03
 Coeff-Com: -0.551D-02-0.135D-01 0.108D-01 0.487D+00 0.522D+00
 Coeff:     -0.656D-06 0.398D-05 0.150D-04 0.330D-05-0.895D-04-0.491D-03
 Coeff:     -0.551D-02-0.135D-01 0.108D-01 0.487D+00 0.522D+00
 Gap=     0.245 Goal=   None    Shift=    0.000
 RMSDP=2.82D-08 MaxDP=1.07D-06 DE=-2.22D-11 OVMax= 7.96D-07

 Cycle  12  Pass 1  IDiag  1:
 RMSU=  1.86D-08    CP:  8.30D-01  1.13D+00  8.41D-01  6.67D-01  7.97D-01
                    CP:  7.55D-01  8.77D-01  8.55D-01  9.18D-01  1.03D+00
                    CP:  1.00D+00
 E= -331.199650747635     Delta-E=       -0.000000000010 Rises=F Damp=F
 DIIS: error= 1.90D-08 at cycle  12 NSaved=  12.
 NSaved=12 IEnMin=12 EnMin= -331.199650747635     IErMin=12 ErrMin= 1.90D-08
 ErrMax= 1.90D-08  0.00D+00 EMaxC= 1.00D-01 BMatC= 8.31D-14 BMatP= 1.22D-11
 IDIUse=1 WtCom= 1.00D+00 WtEn= 0.00D+00
 Coeff-Com: -0.320D-06 0.794D-06 0.663D-05 0.124D-04 0.292D-04 0.798D-05
 Coeff-Com: -0.472D-03-0.211D-02-0.933D-02 0.412D-02 0.749D-03 0.101D+01
 Coeff:     -0.320D-06 0.794D-06 0.663D-05 0.124D-04 0.292D-04 0.798D-05
 Coeff:     -0.472D-03-0.211D-02-0.933D-02 0.412D-02 0.749D-03 0.101D+01
 Gap=     0.245 Goal=   None    Shift=    0.000
 RMSDP=1.08D-08 MaxDP=3.58D-07 DE=-1.03D-11 OVMax= 1.99D-07

 Cycle  13  Pass 1  IDiag  1:
 RMSU=  3.70D-09    CP:  8.30D-01  1.13D+00  8.41D-01  6.67D-01  7.97D-01
                    CP:  7.55D-01  8.77D-01  8.55D-01  9.18D-01  1.05D+00
                    CP:  1.01D+00  1.07D+00
 E= -331.199650747635     Delta-E=        0.000000000000 Rises=F Damp=F
 DIIS: error= 6.30D-09 at cycle  13 NSaved=  13.
 NSaved=13 IEnMin=12 EnMin= -331.199650747635     IErMin=13 ErrMin= 6.30D-09
 ErrMax= 6.30D-09  0.00D+00 EMaxC= 1.00D-01 BMatC= 4.78D-15 BMatP= 8.31D-14
 IDIUse=1 WtCom= 1.00D+00 WtEn= 0.00D+00
 Coeff-Com:  0.152D-08-0.257D-07 0.474D-06 0.133D-05 0.334D-05 0.143D-04
 Coeff-Com:  0.698D-04-0.192D-04-0.876D-03-0.773D-02-0.210D-01 0.102D+00
 Coeff-Com:  0.927D+00
 Coeff:      0.152D-08-0.257D-07 0.474D-06 0.133D-05 0.334D-05 0.143D-04
 Coeff:      0.698D-04-0.192D-04-0.876D-03-0.773D-02-0.210D-01 0.102D+00
 Coeff:      0.927D+00
 Gap=     0.245 Goal=   None    Shift=    0.000
 RMSDP=1.06D-09 MaxDP=2.87D-08 DE= 3.41D-13 OVMax= 1.73D-08

 SCF Done:  E(RPBE1PBE) =  -331.199650748     A.U. after   13 cycles
            NFock= 13  Conv=0.11D-08     -V/T= 2.0036
 KE= 3.300183583178D+02 PE=-1.315418863146D+03 EE= 3.841643595466D+02
 Leave Link  502 at Fri Jan 17 11:24:04 2025, MaxMem=   104857600 cpu:              28.1 elap:              28.4
 (Enter /sw/cluster/pub/apps//g16/l601.exe)
 Copying SCF densities to generalized density rwf, IOpCl= 0 IROHF=0.

 **********************************************************************

            Population analysis using the SCF density.

 **********************************************************************

 Alpha  occ. eigenvalues --  -24.78211 -10.31601 -10.24257 -10.24255 -10.23908
 Alpha  occ. eigenvalues --  -10.23907 -10.23543  -1.26555  -0.90031  -0.79067
 Alpha  occ. eigenvalues --   -0.78151  -0.65220  -0.64096  -0.57247  -0.52009
 Alpha  occ. eigenvalues --   -0.51366  -0.49119  -0.46814  -0.45367  -0.42228
 Alpha  occ. eigenvalues --   -0.39170  -0.38707  -0.36647  -0.28223  -0.26765
 Alpha virt. eigenvalues --   -0.02227  -0.00978   0.00104   0.01628   0.02206
 Alpha virt. eigenvalues --    0.04109   0.04183   0.06686   0.06731   0.08870
 Alpha virt. eigenvalues --    0.09471   0.09776   0.10703   0.11736   0.12635
 Alpha virt. eigenvalues --    0.12934   0.13538   0.13764   0.13774   0.14465
 Alpha virt. eigenvalues --    0.14568   0.14718   0.15015   0.16187   0.16352
 Alpha virt. eigenvalues --    0.18183   0.20336   0.20757   0.20832   0.22356
 Alpha virt. eigenvalues --    0.22659   0.25550   0.27024   0.27861   0.28247
 Alpha virt. eigenvalues --    0.28763   0.31124   0.31373   0.32669   0.34698
 Alpha virt. eigenvalues --    0.35717   0.35763   0.38007   0.40618   0.40721
 Alpha virt. eigenvalues --    0.44948   0.48963   0.50661   0.53142   0.54283
 Alpha virt. eigenvalues --    0.55222   0.56470   0.57956   0.58059   0.58301
 Alpha virt. eigenvalues --    0.60598   0.60878   0.62569   0.62921   0.68763
 Alpha virt. eigenvalues --    0.68946   0.73595   0.75115   0.77892   0.79575
 Alpha virt. eigenvalues --    0.80503   0.85418   0.86013   0.86704   0.88453
 Alpha virt. eigenvalues --    0.89035   0.90130   0.92991   0.94771   0.96979
 Alpha virt. eigenvalues --    0.99725   1.02830   1.02917   1.07033   1.09922
 Alpha virt. eigenvalues --    1.12956   1.18892   1.29558   1.34931   1.44203
 Alpha virt. eigenvalues --    1.45277   1.45627   1.51211   1.52755   1.55056
 Alpha virt. eigenvalues --    1.56747   1.56934   1.57256   1.61505   1.64658
 Alpha virt. eigenvalues --    1.65283   1.67197   1.73788   1.74751   1.77125
 Alpha virt. eigenvalues --    1.83195   1.87845   1.92138   1.92363   1.94188
 Alpha virt. eigenvalues --    1.96176   1.96364   1.99211   2.02328   2.04364
 Alpha virt. eigenvalues --    2.06825   2.08199   2.09515   2.28544   2.30662
 Alpha virt. eigenvalues --    2.33981   2.42559   2.44556   2.46328   2.51493
 Alpha virt. eigenvalues --    2.62784   2.66153   2.66492   2.71211   2.72514
 Alpha virt. eigenvalues --    2.74356   2.75913   2.78244   2.78800   2.81479
 Alpha virt. eigenvalues --    2.85252   2.86546   2.89985   2.91146   2.96717
 Alpha virt. eigenvalues --    3.10044   3.15891   3.20456   3.37191   3.38542
 Alpha virt. eigenvalues --    3.51111   3.52458   3.65126   3.75014   3.80422
 Alpha virt. eigenvalues --    3.87302   4.00882   4.01439   4.07143   4.14386
 Alpha virt. eigenvalues --    4.17753   4.17753   4.86532   4.90099   6.36601
 Alpha virt. eigenvalues --    6.49653   6.80146  23.66157  24.02621  24.07885
 Alpha virt. eigenvalues --   24.18871  24.20240  24.30459  66.95921
          Condensed to atoms (all electrons):
               1          2          3          4          5          6
     1  C    6.542527  -1.273351   1.284839  -0.786636   0.942488  -0.881599
     2  C   -1.273351   8.973449  -1.673567  -0.726995  -0.786636   1.256809
     3  C    1.284839  -1.673567   8.290381  -1.673567   1.284839  -1.401573
     4  C   -0.786636  -0.726995  -1.673567   8.973449  -1.273351   1.256809
     5  C    0.942488  -0.786636   1.284839  -1.273351   6.542527  -0.881599
     6  C   -0.881599   1.256809  -1.401573   1.256809  -0.881599   6.698722
     7  H    0.437554  -0.127082   0.060429   0.011300   0.016508  -0.092965
     8  H   -0.040721   0.544838  -0.158583  -0.075924   0.004457   0.038083
     9  H    0.004457  -0.075924  -0.158583   0.544838  -0.040721   0.038083
    10  H    0.016508   0.011300   0.060429  -0.127082   0.437554  -0.092965
    11  H   -0.043523   0.006481  -0.001780   0.006481  -0.043523   0.399675
    12  F    0.071621  -0.379407   0.723945  -0.379407   0.071621  -0.058648
               7          8          9         10         11         12
     1  C    0.437554  -0.040721   0.004457   0.016508  -0.043523   0.071621
     2  C   -0.127082   0.544838  -0.075924   0.011300   0.006481  -0.379407
     3  C    0.060429  -0.158583  -0.158583   0.060429  -0.001780   0.723945
     4  C    0.011300  -0.075924   0.544838  -0.127082   0.006481  -0.379407
     5  C    0.016508   0.004457  -0.040721   0.437554  -0.043523   0.071621
     6  C   -0.092965   0.038083   0.038083  -0.092965   0.399675  -0.058648
     7  H    0.490040  -0.009878   0.000905  -0.000024  -0.004886   0.001543
     8  H   -0.009878   0.486757  -0.001733   0.000905   0.000766  -0.026702
     9  H    0.000905  -0.001733   0.486757  -0.009878   0.000766  -0.026702
    10  H   -0.000024   0.000905  -0.009878   0.490040  -0.004886   0.001543
    11  H   -0.004886   0.000766   0.000766  -0.004886   0.483930  -0.000479
    12  F    0.001543  -0.026702  -0.026702   0.001543  -0.000479   9.146421
 Mulliken charges:
               1
     1  C   -0.274166
     2  C    0.250083
     3  C   -0.637209
     4  C    0.250083
     5  C   -0.274166
     6  C   -0.278834
     7  H    0.216554
     8  H    0.237735
     9  H    0.237735
    10  H    0.216554
    11  H    0.200978
    12  F   -0.145349
 Sum of Mulliken charges =  -0.00000
 Mulliken charges with hydrogens summed into heavy atoms:
               1
     1  C   -0.057611
     2  C    0.487819
     3  C   -0.637209
     4  C    0.487819
     5  C   -0.057611
     6  C   -0.077856
    12  F   -0.145349
 Electronic spatial extent (au):  <R**2>=            682.2614
 Charge=             -0.0000 electrons
 Dipole moment (field-independent basis, Debye):
    X=             -0.0000    Y=              1.6609    Z=             -0.0000  Tot=              1.6609
 Quadrupole moment (field-independent basis, Debye-Ang):
   XX=            -34.0666   YY=            -42.0749   ZZ=            -43.5461
   XY=              0.0000   XZ=              0.0000   YZ=              0.0000
 Traceless Quadrupole moment (field-independent basis, Debye-Ang):
   XX=              5.8293   YY=             -2.1790   ZZ=             -3.6502
   XY=              0.0000   XZ=              0.0000   YZ=              0.0000
 Octapole moment (field-independent basis, Debye-Ang**2):
  XXX=              0.0000  YYY=             57.2996  ZZZ=              0.0000  XYY=             -0.0000
  XXY=             10.3029  XXZ=              0.0000  XZZ=             -0.0000  YZZ=             10.2016
  YYZ=             -0.0000  XYZ=             -0.0000
 Hexadecapole moment (field-independent basis, Debye-Ang**3):
 XXXX=           -261.9070 YYYY=           -525.7202 ZZZZ=            -48.8968 XXXY=              0.0000
 XXXZ=              0.0000 YYYX=              0.0000 YYYZ=              0.0000 ZZZX=              0.0000
 ZZZY=              0.0000 XXYY=           -118.0465 XXZZ=            -64.2388 YYZZ=            -93.7239
 XXYZ=              0.0000 YYXZ=              0.0000 ZZXY=              0.0000
 N-N= 2.700364945340D+02 E-N=-1.315418863185D+03  KE= 3.300183583178D+02
 No NMR shielding tensors so no spin-rotation constants.
 Leave Link  601 at Fri Jan 17 11:24:05 2025, MaxMem=   104857600 cpu:               0.0 elap:               0.1
 (Enter /sw/cluster/pub/apps//g16/l9999.exe)
 1\1\GINC-N12\SP\RPBE1PBE\6-311++G(d,p)\C6H5F1\UNKNOWN\17-Jan-2025\0\\#
 p PBE1PBE/6-311++G(d,p) density=current nosymm\\MFB SP\\0,1\C,0,1.2030
 88767,0.691433969,-0.000000002\C,0,1.212388433,-0.699423868,0.\C,0,0.,
 -1.364533025,-0.000000004\C,0,-1.212388433,-0.699423868,0.000000001\C,
 0,-1.203088767,0.691433969,-0.000000002\C,0,0.,1.389294679,0.000000002
 \H,0,2.144955112,1.229929204,0.000000001\H,0,2.13713583,-1.264723698,-
 0.000000001\H,0,-2.13713583,-1.264723698,-0.000000001\H,0,-2.144955112
 ,1.229929204,0.000000001\H,0,0.,2.473759676,0.\F,0,0.,-2.709786181,0.0
 00000003\\Version=ES64L-G16RevA.03\HF=-331.1996507\RMSD=1.059e-09\Dipo
 le=0.,0.6534592,0.\Quadrupole=4.3339358,-1.620068,-2.7138678,0.,0.,0.\
 PG=C02V [C2(H1C1C1F1),SGV(C4H4)]\\@


 A SLIP OF THE FOOT YOU MAY SOON RECOVER, BUT A SLIP OF THE TONGUE
 YOU MAY NEVER GET OVER. -- BEN FRANKLIN
 Job cpu time:       0 days  0 hours  0 minutes 29.5 seconds.
 Elapsed time:       0 days  0 hours  0 minutes 30.3 seconds.
 File lengths (MBytes):  RWF=     22 Int=      0 D2E=      0 Chk=      3 Scr=      1
 Normal termination of Gaussian 16 at Fri Jan 17 11:24:05 2025.
